# Coarse grained LAMMPS data file

882 atoms
31 bonds
36 angless

5 atom types
4 bond types
4 angle types

1.3589505407866938e+00 3.1790580459194203e+01 xlo xhi
1.3589505407866938e+00 3.1790580459194203e+01 ylo yhi
1.3589505407866938e+00 3.1790580459194203e+01 zlo zhi

Atoms

1 1 5      0.000000000     76.581534183   -314.958550571    225.934475658 # W
2 2 5      0.000000000    356.570688977    244.825542970    526.429166137 # W
3 3 5      0.000000000    154.190772810   -424.845883906    324.293178222 # W
4 4 5      0.000000000    486.433681638   -253.577157122    -65.072313759 # W
5 5 5      0.000000000    368.647233927   -121.299087549    330.035284561 # W
6 6 5      0.000000000   -614.678004909    832.742767693     -4.368775180 # W
7 7 5      0.000000000    265.493346122   -184.792421940     31.006765545 # W
8 8 5      0.000000000    -51.789892278   -249.809661858   -398.842152629 # W
9 9 5      0.000000000    -43.085664128      6.483091295     36.396279382 # W
10 10 5      0.000000000     20.210970520   -250.383284708    -46.796499855 # W
11 11 5      0.000000000      0.967745938    610.168031100    274.216418845 # W
12 12 5      0.000000000   -209.540510808    545.559079435    554.548393800 # W
13 13 5      0.000000000    -45.000005165    -82.044229476      1.352161674 # W
14 14 5      0.000000000    448.549077179   -156.900772019   -190.636300182 # W
15 15 5      0.000000000    175.354194688    490.354714857    258.840488887 # W
16 16 5      0.000000000    133.511454696    -86.978934907    159.568953956 # W
17 17 5      0.000000000    446.395668352    126.192997217    386.764567423 # W
18 18 5      0.000000000   -120.891951301    492.290867198    298.483939827 # W
19 19 5      0.000000000    -52.466298764    390.508804647     21.862247722 # W
20 20 5      0.000000000   -104.119123193    105.088919516    812.714158880 # W
21 21 5      0.000000000     44.134019898   -234.099504316   -221.827107942 # W
22 22 5      0.000000000   -830.165507749   -426.479050949     46.725503433 # W
23 23 5      0.000000000   -117.445350550    -27.536522643   -166.792758366 # W
24 24 5      0.000000000    -70.978621225    423.581710490   -200.406485568 # W
25 25 5      0.000000000    143.676207656   -296.417863558   -539.146285282 # W
26 26 5      0.000000000   -607.501541695   -145.794353795    -54.895933970 # W
27 27 5      0.000000000    -34.407808988     49.792551460     -8.614083643 # W
28 28 5      0.000000000    593.724348675    143.323075385      6.149212203 # W
29 29 5      0.000000000   -101.414249624   -110.111463846     11.205238465 # W
30 30 5      0.000000000   -959.223319504    481.866134414   -440.701771938 # W
31 31 5      0.000000000   -326.823855873    -83.756951243   -175.895132606 # W
32 32 5      0.000000000    161.987220509   -480.260477127    453.324740830 # W
33 33 5      0.000000000    200.778152286    291.450871646    -71.932286585 # W
34 34 5      0.000000000     63.108052083      4.805491364    618.244922163 # W
35 35 5      0.000000000    -32.337395783   -144.841250856    279.879765857 # W
36 36 5      0.000000000      9.322467352    431.443098413    242.814306245 # W
37 37 5      0.000000000   -189.467817077   -181.886339047   -163.685504721 # W
38 38 5      0.000000000     57.454932255    535.190331315    196.062031972 # W
39 39 5      0.000000000     66.389272540    100.998415412    269.790367202 # W
40 40 5      0.000000000   -281.430397599     39.600691359   -428.628464601 # W
41 41 5      0.000000000    -56.539240904    170.767205925    216.019041985 # W
42 42 5      0.000000000   -193.194566084    802.649729755    305.156581167 # W
43 43 5      0.000000000   -151.270387003     58.599638075   -407.340970558 # W
44 44 5      0.000000000    586.246541926    164.176618756    -80.324815933 # W
45 45 5      0.000000000    315.818381613    249.158318861    134.405206314 # W
46 46 5      0.000000000    441.798769861    293.514808151    323.979027116 # W
47 47 5      0.000000000   -120.362653603   -593.215740837     86.747133446 # W
48 48 5      0.000000000    360.103020985   -286.818655553   -316.008004150 # W
49 49 5      0.000000000    565.201015206   -307.445617245    -63.069735459 # W
50 50 5      0.000000000    298.717129056    389.206554940    359.344649478 # W
51 51 5      0.000000000   -220.300502592   -625.680542611    513.599190067 # W
52 52 5      0.000000000    -11.833431683    474.235394135     87.971846631 # W
53 53 5      0.000000000   -874.784645254    483.596779526   -178.497132979 # W
54 54 5      0.000000000   -201.881935905    519.511803192   -195.669960189 # W
55 55 5      0.000000000   -164.770335123   -118.127317131    286.780702946 # W
56 56 5      0.000000000    558.083041203    866.068325647    357.314717933 # W
57 57 5      0.000000000     55.447989190    447.986345848    209.648947027 # W
58 58 5      0.000000000    503.604344400   -516.802974741    170.531246614 # W
59 59 5      0.000000000   -233.726795097    415.943252176   -524.223484626 # W
60 60 5      0.000000000    -17.715948285    371.471251214    389.942149087 # W
61 61 5      0.000000000    375.122549325   -282.181786547    341.523145619 # W
62 62 5      0.000000000    235.148029062    -17.000856210   -123.038066297 # W
63 63 5      0.000000000    100.066439623   -945.426068394    -95.826773035 # W
64 64 5      0.000000000    444.745996195   -286.763383305    265.368233945 # W
65 65 5      0.000000000     98.571100186    -29.543460799    365.949497944 # W
66 66 5      0.000000000    -44.837986984   -420.953019704    -10.727800361 # W
67 67 5      0.000000000   -559.980842136    639.456878074    379.291597217 # W
68 68 5      0.000000000    868.615333688    407.286828615   -542.392020343 # W
69 69 5      0.000000000   -263.964310906    505.064289995      2.892858022 # W
70 70 5      0.000000000   -249.097556783    -79.759059362    104.145167369 # W
71 71 5      0.000000000    204.891587046   -276.965121889    108.564474757 # W
72 72 5      0.000000000    -37.431480366   -439.019274254    491.747351233 # W
73 73 5      0.000000000   -490.196149375    258.521500733   -556.524136151 # W
74 74 5      0.000000000    209.956343760     70.214777370    -90.117513000 # W
75 75 5      0.000000000   -179.484549003   -206.300212481    -17.557893572 # W
76 76 5      0.000000000    371.700384917   -222.102686191    169.177143232 # W
77 77 5      0.000000000   -186.512847883    106.544038152    286.917945160 # W
78 78 5      0.000000000   -541.424108216    764.583359661     98.388881923 # W
79 79 5      0.000000000   -421.382841487   -303.763677590    -11.257676935 # W
80 80 5      0.000000000    164.081584351   -136.102141227   -177.322483029 # W
81 81 5      0.000000000   -238.554465557   -133.509696001   -653.642337468 # W
82 82 5      0.000000000   -389.245827442    388.470450049   -524.957730316 # W
83 83 5      0.000000000    305.972753442    -23.494739095    259.883659573 # W
84 84 5      0.000000000    488.089115416    340.592699471   -121.476594068 # W
85 85 5      0.000000000      7.157284893     91.858938880    109.020096533 # W
86 86 5      0.000000000    -96.583875420   -151.941556601     34.417753359 # W
87 87 5      0.000000000   -201.825446577    -36.386909818   -586.541598743 # W
88 88 5      0.000000000    144.914936146    363.266250712    280.360668978 # W
89 89 5      0.000000000   -641.625931573   -656.566280956   -193.726087120 # W
90 90 5      0.000000000    558.574413836    274.425347932    384.948244390 # W
91 91 5      0.000000000    353.658278295   -174.904861067   -278.662523511 # W
92 92 5      0.000000000    -64.602325579   -148.673905511    280.649570540 # W
93 93 5      0.000000000    233.534598780    599.770105686    894.810502948 # W
94 94 5      0.000000000    245.048894156    218.237917467   -149.330188822 # W
95 95 5      0.000000000    465.273893675    437.862886216   -402.172429559 # W
96 96 5      0.000000000    -29.390410421    540.076407460    -64.646602796 # W
97 97 5      0.000000000    427.992411225    -67.750971805   -162.763662319 # W
98 98 5      0.000000000   -240.670485879   -285.905265216   -657.432970219 # W
99 99 5      0.000000000   -371.366877321   -122.497807461   -153.244711252 # W
100 100 5      0.000000000   -405.873238784    -75.623427908   -246.277444058 # W
101 101 5      0.000000000    459.285198521   -532.551114412    657.388021127 # W
102 102 5      0.000000000    547.050403055    100.033626061     80.586996649 # W
103 103 5      0.000000000    -26.131657045    -95.881462331   -113.736900112 # W
104 104 5      0.000000000   -497.853158785     26.543658236    -61.417662371 # W
105 105 5      0.000000000    213.274047403    -55.138567506   -252.514618762 # W
106 106 5      0.000000000   -551.914932963   -343.843215231    133.737805311 # W
107 107 5      0.000000000   -275.624830930    -48.109863365    478.670846545 # W
108 108 5      0.000000000   -314.062327064   -805.699056470   -340.246294949 # W
109 109 5      0.000000000   -337.569053901   -618.816603447    551.906330374 # W
110 110 5      0.000000000   -209.213114890    243.070297928    103.840822153 # W
111 111 5      0.000000000    330.519262796   -270.218739241   -502.083682363 # W
112 112 5      0.000000000    276.502368215     73.050424925    193.185957603 # W
113 113 5      0.000000000     -2.096138530   -481.406994715    513.900952195 # W
114 114 5      0.000000000   -127.651881306   -469.227312525    -94.269212412 # W
115 115 5      0.000000000   -102.734536080    302.724804641   -485.706798233 # W
116 116 5      0.000000000    259.704995010   -218.426193082    -67.181800301 # W
117 117 5      0.000000000   -402.059391245    234.325331668    -60.967948040 # W
118 118 5      0.000000000   -497.385700434   -244.199143091    -82.870474794 # W
119 119 5      0.000000000   -548.780836029    171.108780746     12.453275963 # W
120 120 5      0.000000000     11.689647782   -213.811780583    434.642034511 # W
121 121 5      0.000000000     75.241298047    121.949016535   -767.096167329 # W
122 122 5      0.000000000    198.147244539    703.922763046   -187.468624797 # W
123 123 5      0.000000000    199.448507186   -337.643564301    102.628346588 # W
124 124 5      0.000000000   -110.055085491    231.252867209    293.973752431 # W
125 125 5      0.000000000     45.396327640    444.804906991    -54.668521505 # W
126 126 5      0.000000000    225.850701802    -59.079720336     73.155889186 # W
127 127 5      0.000000000     78.240706405    766.802458025    774.730086697 # W
128 128 5      0.000000000   -601.643821910    214.968103402    -67.003044624 # W
129 129 5      0.000000000   -265.630100149    512.618148711    189.044740512 # W
130 130 5      0.000000000     90.076835135    594.923258120   -193.402466834 # W
131 131 5      0.000000000   -390.849917078   -198.945587784    -54.537068017 # W
132 132 5      0.000000000     13.415468448    352.231999704    -74.042689202 # W
133 133 5      0.000000000   -143.254142759   -197.545921347    124.495980618 # W
134 134 5      0.000000000    144.278438250    168.282774839   -123.420097028 # W
135 135 5      0.000000000    514.243743877   -386.546781975    195.048205302 # W
136 136 5      0.000000000    533.984025568   -148.532265958    -69.167876925 # W
137 137 5      0.000000000   -316.199219827    298.139554675    472.619026043 # W
138 138 5      0.000000000     57.667829086     78.281191242    -57.405036555 # W
139 139 5      0.000000000    193.982197186     61.736765284   -624.335041218 # W
140 140 5      0.000000000    -50.954948230   -474.293636890   -151.102470888 # W
141 141 5      0.000000000    588.499350662   -153.193795716   -189.323480305 # W
142 142 5      0.000000000    210.604307626    283.504054741   -239.399430883 # W
143 143 5      0.000000000     -3.086615563   -324.181328675     53.399641532 # W
144 144 5      0.000000000    334.242037449    -20.586375273    -60.939422886 # W
145 145 5      0.000000000   -275.229582848   -150.874138822    313.774699083 # W
146 146 5      0.000000000    225.816748977   -215.629978316   -267.104871830 # W
147 147 5      0.000000000   -531.763764265    665.869234292   -240.418358810 # W
148 148 5      0.000000000    263.970840884   -572.153983186    250.322336539 # W
149 149 5      0.000000000   -267.249252492    276.890680673     49.000476129 # W
150 150 5      0.000000000     -7.379792397     28.075207744   -108.830607657 # W
151 151 5      0.000000000    325.163352216    -18.805506568    -26.413002803 # W
152 152 5      0.000000000    227.157511242   -213.545360630    256.105242214 # W
153 153 5      0.000000000   -219.303873198    399.909916100   -358.594294235 # W
154 154 5      0.000000000   -127.891406842   -324.103435067    -11.101269373 # W
155 155 5      0.000000000    -40.694946369   -427.532593700   -541.960724456 # W
156 156 5      0.000000000    378.982865358    675.937525882   -282.989116712 # W
157 157 5      0.000000000   -247.400030741   -152.719259829    715.512402903 # W
158 158 5      0.000000000    683.561996079    598.110988708   -550.842426824 # W
159 159 5      0.000000000    486.553257778    -53.278276554   -278.176489709 # W
160 160 5      0.000000000    289.868130515   -217.457972572    317.704197183 # W
161 161 5      0.000000000    441.536131060    124.223733849    -93.961383761 # W
162 162 5      0.000000000   -306.917463675    142.525190629    222.390061569 # W
163 163 5      0.000000000    170.818683188     98.529365349    -32.299684199 # W
164 164 5      0.000000000    231.893543235    324.509637257   -250.294923454 # W
165 165 5      0.000000000   -416.742329570     94.127853161    207.588626953 # W
166 166 5      0.000000000    189.585953910    -26.839656506    407.553538458 # W
167 167 5      0.000000000   -155.468155091    253.896477337    901.033933342 # W
168 168 5      0.000000000    447.696131776   -208.761676000   -272.661605746 # W
169 169 5      0.000000000    468.045184587    205.691661205    452.633395426 # W
170 170 5      0.000000000     58.003626257    389.418244497   -113.056131826 # W
171 171 5      0.000000000     97.717878303    466.829016715   1022.792417239 # W
172 172 5      0.000000000    185.801151799    -40.034956310   -440.577426575 # W
173 173 5      0.000000000    -30.262313850    -21.838356291    -87.532469659 # W
174 174 5      0.000000000   -446.973084599     95.231796270    378.503786733 # W
175 175 5      0.000000000   -411.860722553   -306.306586688   -238.903846705 # W
176 176 5      0.000000000   -407.855177001    -63.513930516    -25.975060324 # W
177 177 5      0.000000000    231.195935729     62.110663520     66.484522835 # W
178 178 5      0.000000000    -84.633114699   -140.037006191    249.897238684 # W
179 179 5      0.000000000     38.941059582   -432.905655570     77.503320834 # W
180 180 5      0.000000000    -81.951715974    504.658305234   -342.659250475 # W
181 181 5      0.000000000   -194.069276682      9.483048562    737.505583168 # W
182 182 5      0.000000000    -99.360284456   -350.084448307   -452.556542102 # W
183 183 5      0.000000000   -548.937844164   -303.008311179    234.708822500 # W
184 184 5      0.000000000    335.965042189   -109.017643547    -53.087778576 # W
185 185 5      0.000000000    346.489797172   -473.885260161    303.181412137 # W
186 186 5      0.000000000    136.199944719    -41.987479462   -350.132130585 # W
187 187 5      0.000000000     70.036062461   -190.844111315   -331.332860271 # W
188 188 5      0.000000000   -239.521013862    629.123325635    782.548058200 # W
189 189 5      0.000000000   -875.130830489    -13.458869107     81.622582795 # W
190 190 5      0.000000000    551.691291813   -361.914839672   -448.686725728 # W
191 191 5      0.000000000    -75.842036397    136.192461893    -22.481425088 # W
192 192 5      0.000000000     59.678249032   -555.422333787    405.742440359 # W
193 193 5      0.000000000   -635.527826824     47.605111068    -34.733953170 # W
194 194 5      0.000000000   -337.357137956    493.170549702   -361.976256000 # W
195 195 5      0.000000000   -211.306589581    589.500098161    361.735356040 # W
196 196 5      0.000000000   -252.874456003   -102.987492446   -161.511565147 # W
197 197 5      0.000000000   -360.332185290   -326.022185111    302.664797675 # W
198 198 5      0.000000000    553.598362926   -168.161116042    337.556971910 # W
199 199 5      0.000000000   -158.003890832   -473.333327600   -296.841711703 # W
200 200 5      0.000000000   -150.950509330    120.863679314   -689.180319015 # W
201 201 5      0.000000000    487.827672963    -82.337636808    210.608983607 # W
202 202 5      0.000000000   -286.402087337    122.908770032    131.073419804 # W
203 203 5      0.000000000     80.320090174    105.143472566    215.245684311 # W
204 204 5      0.000000000   -632.740583806    714.440595274    782.637010308 # W
205 205 5      0.000000000     71.320322669   -488.456383194     45.208999299 # W
206 206 5      0.000000000    -69.857869433   -343.676860936    807.249763752 # W
207 207 5      0.000000000    286.202210038    -48.280729655   1008.361966239 # W
208 208 5      0.000000000   -484.221726209    198.705994160    791.326765323 # W
209 209 5      0.000000000   -144.965142621    465.991253792    315.090949624 # W
210 210 5      0.000000000    483.891185491   -140.297179157   -199.622237293 # W
211 211 5      0.000000000    -46.444244848   -224.617564979    884.460187729 # W
212 212 5      0.000000000   -330.596240108     91.996374240    430.164000835 # W
213 213 5      0.000000000    235.256045448   -603.967614991    108.956777337 # W
214 214 5      0.000000000    218.910046166   -432.457441662   -194.101099156 # W
215 215 5      0.000000000    259.501250682    374.069364516   -146.381599536 # W
216 216 5      0.000000000     65.113591697   -147.672755727   -316.864750899 # W
217 217 5      0.000000000    214.915423034    391.886364496    211.236751478 # W
218 218 5      0.000000000   -171.864573500    128.503869144   -433.318624099 # W
219 219 5      0.000000000    -73.436862291    165.695044918     87.378271419 # W
220 220 5      0.000000000    618.946746681    531.273142148     96.483151840 # W
221 221 5      0.000000000     53.774399799   -352.672253454    278.595376083 # W
222 222 5      0.000000000     63.147614158    -30.447518213   -174.188758814 # W
223 223 5      0.000000000   -373.085329578   -494.185151439    601.884152305 # W
224 224 5      0.000000000     14.778159529    422.373945937   -309.446820924 # W
225 225 5      0.000000000    407.489925862     92.665870458    -37.016376400 # W
226 226 5      0.000000000   -332.607842350    497.041450875    -84.198473834 # W
227 227 5      0.000000000   -313.767090641    218.889700819   -397.457398803 # W
228 228 5      0.000000000     33.084162275   -332.036704641    549.908740710 # W
229 229 5      0.000000000    -57.545006436    854.610849287   -280.945792307 # W
230 230 5      0.000000000   -181.632814726    636.635257592   -606.645111985 # W
231 231 5      0.000000000   -644.432493249    387.960755451   -385.607844073 # W
232 232 5      0.000000000   -160.992252634    516.229556908   -193.083354955 # W
233 233 5      0.000000000    277.051265671   -705.731066054   -276.991132935 # W
234 234 5      0.000000000   -166.119734001    264.035932936     33.300375879 # W
235 235 5      0.000000000   -315.400613530   -181.870540880     91.147319952 # W
236 236 5      0.000000000   -267.715557180     26.964250999     76.882526788 # W
237 237 5      0.000000000   -267.723671613    888.348564665    522.653762162 # W
238 238 5      0.000000000    -36.395954011    -96.855997854    -74.071077442 # W
239 239 5      0.000000000   -208.774233724   -784.424610839    -15.019463776 # W
240 240 5      0.000000000    179.261820453   -181.484476214    666.097263332 # W
241 241 5      0.000000000    421.722127715     -6.609497137   -738.525896745 # W
242 242 5      0.000000000    -59.995032822   -319.601948639     81.248003410 # W
243 243 5      0.000000000   -123.959797223    420.717628501   -392.330809067 # W
244 244 5      0.000000000    201.266908492   -770.079605285    -24.700991493 # W
245 245 5      0.000000000    151.674983104   -659.738553509    742.900953249 # W
246 246 5      0.000000000   -145.959094428    914.026899603   -504.849976863 # W
247 247 5      0.000000000    418.226960750    208.256469522   -639.248816301 # W
248 248 5      0.000000000    196.347157630    323.383083745    112.707672424 # W
249 249 5      0.000000000    625.064597128   -281.458817877     45.171355397 # W
250 250 5      0.000000000    311.978125337   -586.236345395    223.673876109 # W
251 251 5      0.000000000   -263.045685674   -834.389378348    269.150735785 # W
252 252 5      0.000000000   -186.678894419    305.006305546   -159.909512665 # W
253 253 5      0.000000000   -212.287256982   -614.437633685    -81.933011963 # W
254 254 5      0.000000000    198.735101945   -424.753672536    198.511829167 # W
255 255 5      0.000000000   -273.339467172    411.910368855   -408.899804987 # W
256 256 5      0.000000000   -388.203669348     95.923891754   -166.806853596 # W
257 257 5      0.000000000    270.537559786    -34.525817784   -470.147971474 # W
258 258 5      0.000000000   -120.095458097    425.077266690   -487.278101941 # W
259 259 5      0.000000000   -143.429207987    -94.138552643   -105.197814445 # W
260 260 5      0.000000000    121.784085278    305.568402506    413.391344836 # W
261 261 5      0.000000000   -199.216390226   -274.843968862    290.506975509 # W
262 262 5      0.000000000   -696.383338503   -234.096739738     13.652582427 # W
263 263 5      0.000000000    583.686481370    172.650340565    243.561901754 # W
264 264 5      0.000000000   -888.835790184   -545.399960209     91.420027568 # W
265 265 5      0.000000000   -249.545829189    525.618617490   -182.161619666 # W
266 266 5      0.000000000    288.481495442   -190.344070225    -36.255047476 # W
267 267 5      0.000000000   -465.241618854   -478.867222872   -698.370344262 # W
268 268 5      0.000000000    120.724990382   -131.762014326   -377.766577012 # W
269 269 5      0.000000000    137.049219913   -229.306410901     31.728362067 # W
270 270 5      0.000000000   -656.174296724   -169.783753991    116.146211108 # W
271 271 5      0.000000000    355.870234744    116.562878575    225.379633865 # W
272 272 5      0.000000000    618.299148650    183.696975730    496.159613549 # W
273 273 5      0.000000000     46.586767893    -18.742620243    417.168164037 # W
274 274 5      0.000000000   -101.542723127    409.895715030   -207.744781198 # W
275 275 5      0.000000000   -169.682079232    641.082237999    -85.794305687 # W
276 276 5      0.000000000     78.879412323     95.244801415    309.593560961 # W
277 277 5      0.000000000    262.124876454   -472.412865458     54.504151277 # W
278 278 5      0.000000000   -344.971647779    488.186601154    595.748313278 # W
279 279 5      0.000000000   -300.411672675   -192.350295176    384.039160589 # W
280 280 5      0.000000000   -184.504532779    100.954905171   -735.723043136 # W
281 281 5      0.000000000     -2.995988263   -179.156360645    223.289624272 # W
282 282 5      0.000000000    614.896195974    359.327186632   -216.112799811 # W
283 283 5      0.000000000    203.894528207   -642.730689490   -209.662593639 # W
284 284 5      0.000000000    236.166209124    157.620704541   -452.175440330 # W
285 285 5      0.000000000    224.406185073      6.172983329    643.772325615 # W
286 286 5      0.000000000   -379.713498715    259.344933233    332.553222143 # W
287 287 5      0.000000000   -336.077296936   -247.658691723   -711.624880136 # W
288 288 5      0.000000000   -166.984259861   -518.019232912   -305.489567921 # W
289 289 5      0.000000000    758.339397287   -854.337828397    446.159244136 # W
290 290 5      0.000000000   -606.724211064   -435.377679989   -261.945080023 # W
291 291 5      0.000000000   -146.636546030    357.855305261   -335.386958444 # W
292 292 5      0.000000000     23.511703152    466.826932845   -392.744315860 # W
293 293 5      0.000000000    603.231756855    386.011578549    338.912608782 # W
294 294 5      0.000000000   -196.659287036    272.063196312   -137.741834981 # W
295 295 5      0.000000000    193.663551027    -43.735817134    -14.363333584 # W
296 296 5      0.000000000     23.310230684    758.822781308     39.951225553 # W
297 297 5      0.000000000    558.749686993    146.400647325   -235.791158180 # W
298 298 5      0.000000000   -300.000453236   -251.385440613     99.497202830 # W
299 299 5      0.000000000    139.392743371   -461.516403992    265.073858484 # W
300 300 5      0.000000000    584.648481330    317.302048941    343.851565187 # W
301 301 5      0.000000000   -156.492696169   -495.846993348    236.622890215 # W
302 302 5      0.000000000    728.611691744   -301.354712522   -305.986796189 # W
303 303 5      0.000000000   -300.752427549     57.102658972   -766.481421462 # W
304 304 5      0.000000000   -308.594768704    -12.402659743    146.561501746 # W
305 305 5      0.000000000   -132.475959977   -223.381114821    361.046653146 # W
306 306 5      0.000000000    156.832987539    -19.734149860   -110.177449807 # W
307 307 5      0.000000000    342.247898621   -158.992840924   -594.500324123 # W
308 308 5      0.000000000    230.688390082   -274.151542461   -361.809682306 # W
309 309 5      0.000000000   -228.467146917    -65.285135160    514.842394400 # W
310 310 5      0.000000000    -17.529795013    -25.813218317   -455.493254991 # W
311 311 5      0.000000000    737.110867134   -652.355349497   -580.726369959 # W
312 312 5      0.000000000   -151.052857472    263.709397839    386.713841392 # W
313 313 5      0.000000000    362.290089698     42.444043902      7.331800569 # W
314 314 5      0.000000000    -79.461160028     34.895439099    142.848749835 # W
315 315 5      0.000000000    238.802662786   -168.918973082    -33.587959715 # W
316 316 5      0.000000000    858.253640470   -456.168222404    270.160512732 # W
317 317 5      0.000000000   -157.471724497    570.165286613    354.104050064 # W
318 318 5      0.000000000   -314.759521034    322.748016022    151.229085486 # W
319 319 5      0.000000000   -196.132966813    103.903569968   -547.957737256 # W
320 320 5      0.000000000    542.931135998    219.236289356    617.928753864 # W
321 321 5      0.000000000    -54.154505022    400.883440287     -3.383675066 # W
322 322 5      0.000000000   -609.472987837   -699.851362948    124.096520597 # W
323 323 5      0.000000000    -96.200222616     87.678481317    264.902500952 # W
324 324 5      0.000000000    -47.418628953    592.171511894    310.444543891 # W
325 325 5      0.000000000   -670.585573250    167.994339911    848.739695418 # W
326 326 5      0.000000000    305.459379855     30.013488185   -282.417031279 # W
327 327 5      0.000000000    165.765095778    124.349502509   -409.724469981 # W
328 328 5      0.000000000    483.691454430    499.082428000     94.945740679 # W
329 329 5      0.000000000   -434.982974215   -278.264547274     98.275701575 # W
330 330 5      0.000000000    -71.091641687    145.808942806   -543.010150446 # W
331 331 5      0.000000000    351.162954054    423.456752240   -151.714184106 # W
332 332 5      0.000000000     -4.747762069   -293.303895587   -298.855600350 # W
333 333 5      0.000000000    236.962010989    506.899150185    602.395403959 # W
334 334 5      0.000000000      8.438151311   -248.167349468    123.500027012 # W
335 335 5      0.000000000     97.784045330   -174.529098456    428.690097425 # W
336 336 5      0.000000000   -464.399196189    -64.912717323    422.984761003 # W
337 337 5      0.000000000    -60.996668625    590.999619347    -12.676013396 # W
338 338 5      0.000000000   -392.840636756   -521.192894819    415.463529776 # W
339 339 5      0.000000000    194.844962249      5.640647516   -459.669822595 # W
340 340 5      0.000000000   1036.734416853    270.982102766   -299.726180062 # W
341 341 5      0.000000000    425.563652698    -60.223984191   -124.327475652 # W
342 342 5      0.000000000    323.670109515    264.879684045   -182.543539053 # W
343 343 5      0.000000000   -291.254542791   -124.507155206   -316.386070501 # W
344 344 5      0.000000000    271.219490603    166.481023982    603.655109213 # W
345 345 5      0.000000000    250.294165943   -355.567205128    434.007459447 # W
346 346 5      0.000000000     -6.994019795    403.600533589    369.710325554 # W
347 347 5      0.000000000    391.652591244    183.377295916     38.507935467 # W
348 348 5      0.000000000    517.303189238    -89.198778103   -431.037137660 # W
349 349 5      0.000000000    556.646073560   -761.695188968    164.379118950 # W
350 350 5      0.000000000    341.999179419    159.676717105    323.924594471 # W
351 351 5      0.000000000   -382.636152395   -187.107846139   -112.157094397 # W
352 352 5      0.000000000    -46.540507865   -372.245460831    393.204308995 # W
353 353 5      0.000000000    302.242733585   -732.767639575    455.929588539 # W
354 354 5      0.000000000   -129.390973389   -585.531584993   -353.867201770 # W
355 355 5      0.000000000    617.618241759    253.418318707   -320.463063640 # W
356 356 5      0.000000000   -553.654377800    121.714448476    317.643815132 # W
357 357 5      0.000000000     63.708157372   -356.497483639   -133.853602603 # W
358 358 5      0.000000000    495.663315670   -188.200361242    620.471105267 # W
359 359 5      0.000000000   -607.931389964   -650.438474209   -653.425753217 # W
360 360 5      0.000000000   -505.919775669   -358.624227560     47.347816445 # W
361 361 5      0.000000000    -59.472461364   -127.370200268    146.174015315 # W
362 362 5      0.000000000     91.889692283    -18.396778271    427.068777093 # W
363 363 5      0.000000000    350.514204949      6.349866522   -387.822653360 # W
364 364 5      0.000000000   -360.327304493    148.904516342    854.836606118 # W
365 365 5      0.000000000    472.308766068   -760.096704199   -150.450364215 # W