ITEM: TIMESTEP
114600000
ITEM: NUMBER OF ATOMS
882
ITEM: BOX BOUNDS pp pp pp
1.3589505407866938e+00 3.1790580459194203e+01
1.3589505407866938e+00 3.1790580459194203e+01
1.3589505407866938e+00 3.1790580459194203e+01
ITEM: ATOMS id mol type xu yu zu 
1 1 1    -27.192955091   -368.915950243    339.722131010
2 2 1    185.327574953    312.013266639    114.036606237
3 3 1   -123.287460739   -411.126557423     98.104538285
4 4 1    519.562603295   -131.595602351    122.125072538
5 5 1    611.614391454   -291.806895234    492.701077578
6 6 1   -817.960292672   1030.671881168   -155.264306005
7 7 1     15.428088021    -53.125680455    147.837895234
8 8 1   -227.896487194    -96.329053443   -275.674146441
9 9 1    -12.015831617     53.075361988     12.115890699
10 10 1    -72.120756604   -216.525394185    276.809404576
11 11 1    -51.509172411    491.940628385    186.894766744
12 12 1   -145.859085871    749.779674889    534.997489503
13 13 1   -438.789777135     35.650380023   -194.168310834
14 14 1    392.973286688   -115.653975121   -205.091347469
15 15 1    484.366622401    141.692572432    203.864455910
16 16 1    -59.739605228    222.176874974    173.184655051
17 17 1    345.622264540    296.691778501    321.618478690
18 18 1     86.981339155    300.943071383    220.641791412
19 19 1    113.389273566    822.804002520     48.145726118
20 20 1   -331.355726223     85.663042682    678.218027610
21 21 1    -41.443097366    -46.091518581    -81.152499610
22 22 1   -176.001413291   -257.493306005    -37.428994078
23 23 1    -81.898232187   -295.083483309   -291.168876128
24 24 1   -207.723831200    495.734876339    166.945595213
25 25 1     41.361836448   -231.293729476   -632.223791623
26 26 1   -239.242347469     15.442552287     66.316102866
27 27 1    259.835757086     87.227327725   -190.944337078
28 28 1    201.440542725     93.951841917   -153.036405731
29 29 1     -8.524596434   -272.512910454    203.547325111
30 30 1   -732.352996536    170.150533066   -280.091670271
31 31 1    -77.598141225    -81.837934769     45.967509028
32 32 1    107.173910665   -299.766671426    150.615617572
33 33 1    -16.176915064    109.798548919    147.283581880
34 34 1    137.257364266   -120.212271679    465.686340331
35 35 1     85.619659562    -85.587901639    -43.871659059
36 36 1    -51.812289838    355.270186962    195.619979529
37 37 1    242.816043041     20.106120763   -234.564198930
38 38 1     92.901549675    514.654473861    -51.389623694
39 39 1    227.521890194     17.059784715    105.234295192
40 40 1   -144.723126392    -43.306135167   -380.830642661
41 41 1    -43.422253726    -92.710512892    614.313078522
42 42 1   -522.413785850    528.027625132    620.602014066
43 43 1   -470.113360591     79.338023072   -425.555826160
44 44 1    901.661221499    179.669732207   -175.635987822
45 45 1     22.910658830     55.018632553    -45.711926192
46 46 1    319.667664498    109.542291728    260.213740289
47 47 1    -73.331347197   -246.196238085    360.596550285
48 48 1    576.885219190     58.545780841   -386.796940373
49 49 1    364.509324900   -134.340595002    121.211897754
50 50 1    147.643513017    408.759598677    282.226390721
51 51 1   -295.872196621   -531.698191791    524.551614108
52 52 1   -498.742808419    371.510304639   -147.570663344
53 53 1   -680.483973967    506.298628806   -482.552323745
54 54 1   -236.361926307    452.649113270    -36.282481943
55 55 1   -380.767185597      1.401265324    351.885034326
56 56 1    485.511879592   1020.005238296    344.960310834
57 57 1    367.324558156    127.031573587    207.210701133
58 58 1    577.268643816   -332.216292883    241.142271257
59 59 1   -311.700015431    534.783958114   -512.203956959
60 60 1    273.333323745    171.095184653    432.553952130
61 61 1    586.959427568   -132.677258346    171.185405731
62 62 1    634.853917593    136.386702499   -104.960573798
63 63 1    -35.003435860   -611.378898698   -109.910090700
64 64 1    137.297180978   -522.658791412    450.314270102
65 65 1    105.745285744    205.332501049    203.388935966
66 66 1   -171.852196199   -121.324188117   -213.617945413
67 67 1   -265.537708483    548.876451292    360.697363322
68 68 1    722.974929982    251.657473861   -465.792341486
69 69 1   -185.129583456    234.418597522   -106.207385470
70 70 1    -33.173284191     12.248042945   -115.161728321
71 71 1    584.625348624   -217.519696304   -289.949292672
72 72 1     78.512586637   -588.732459796   -101.205910665
73 73 1   -601.491142978    411.138112848   -917.217534432
74 74 1    326.715868046      4.351077988   -369.168958114
75 75 1     35.602641340   -331.458490658    100.391711736
76 76 1     99.171216953    -80.478338315     75.717643575
77 77 1   -309.086654629     24.780082868    228.611705019
78 78 1   -452.360394185    649.361334769    126.529002309
79 79 1   -380.844594269    -35.473060728    591.704354608
80 80 1    121.925881168   -378.184987089   -332.179540415
81 81 1   -216.057989398   -285.582635945   -683.654953706
82 82 1   -566.062644027    604.116273988   -539.961195466
83 83 1    202.349581147     14.363070984    248.840980894
84 84 1    664.450851460    401.438097628    112.563332249
85 85 1   -224.680971658    -35.694788158   -126.888013122
86 86 1   -151.717772517     34.719374565     61.908079067
87 87 1   -292.560753833   -369.155982260   -464.447536952
88 88 1    250.296827525    509.167602562    432.862886730
89 89 1   -366.995641718   -440.096498529   -215.803085660
90 90 1    586.945249842    160.179371615    391.695690321
91 91 1    304.487457065   -343.673717930   -320.099924731
92 92 1   -557.874183499    132.040627230    262.298875185
93 93 1    166.281108441    325.676672791    831.018160507
94 94 1    398.443865315     67.035520721    -44.765514098
95 95 1    257.650279972    456.740909722   -513.986782175
96 96 1    109.374141401    667.350198719     78.740957097
97 97 1    206.123679929   -123.824671426     76.921501311
98 98 1   -324.685963365   -256.403682239   -654.029201239
99 99 1     14.731616207    119.295512073   -397.945296346
100 100 1    -75.061891414     85.256912082   -132.604288054
101 101 1     48.127213185   -244.064983414    487.139581880
102 102 1    603.808526350    290.240415600    317.307559732
103 103 1    205.425702288    291.574069074   -258.171068131
104 104 1   -566.319808419    -63.575298761   -270.662291939
105 105 1    420.429293826    177.021938064    -81.248247208
106 106 1   -361.026033383   -493.266429877    126.686358071
107 107 1   -347.403953706   -234.810107286    506.301608546
108 108 1   -368.002941528   -319.155557001   -198.505167645
109 109 1   -356.124854502   -474.013241549    359.619082196
110 110 1   -640.997333615    375.228798761    110.131414234
111 111 1    403.937745118   -282.184095318   -283.702991918
112 112 1    -13.070951354   -118.670559521    305.670557423
113 113 1     61.689792390      9.275063719     93.071735346
114 114 1    -47.211640772   -407.301272411    -21.092104735
115 115 1    187.068950032    244.283552594   -733.667860908
116 116 1    458.941873819    -86.182024335   -203.263215516
117 117 1   -161.736017951    151.378431975    -56.178624502
118 118 1   -369.432537163    -94.433945454    232.063848940
119 119 1   -507.449155678    255.835798761    137.079904682
120 120 1     44.389115348   -252.458809785    427.562067920
121 121 1   -233.505198719    -66.164415211   -939.729145498
122 122 1    216.737288054    508.425635523    -99.067217595
123 123 1   -127.248148751   -511.921435439    -33.611741360
124 124 1     57.303780600    -26.985266889    666.320352299
125 125 1    131.580907202    239.468169955    191.611916649
126 126 1    199.699734727   -182.762787948     80.685447765
127 127 1   -141.190646336    878.819376023    695.755510497
128 128 1   -793.312584400    484.539699035      6.098398586
129 129 1    105.077425991    279.657775981    239.989573798
130 130 1    230.444738191    540.817851460    -33.364918171
131 131 1   -339.744702499   -475.576818078    149.952491813
132 132 1    442.392772728     46.962093450    -52.370762147
133 133 1   -114.664282281   -136.426237874    141.300576318
134 134 1    718.093081985     -6.839726909    -52.668559616
135 135 1    914.605116523   -210.795516691    268.796159774
136 136 1    288.250423893    -79.656413541   -357.277501260
137 137 1   -269.068681084    322.398536952    329.636376445
138 138 1     91.836203182    118.208819232   -455.564472707
139 139 1     59.686247312     60.828049317   -415.610158409
140 140 1    -30.486737394   -394.265465357    172.371256037
141 141 1    840.576950032     15.768114002   -479.353138148
142 142 1    363.044517846    190.397667751   -451.099036635
143 143 1    195.605320492   -488.615423682    190.795197564
144 144 1    649.072236720    -96.772331116     20.950342652
145 145 1     22.024248490   -128.855688011    307.739166702
146 146 1    303.163165547     22.949744761   -438.707212052
147 147 1   -351.772885576    603.968908356    -42.924494866
148 148 1     49.369339974   -814.503073903    192.512282070
149 149 1   -219.471084295     55.906023535   -200.253281126
150 150 1    127.955378543    234.434557423    -34.685641360
151 151 1    525.335333615   -334.132053643   -254.388895234
152 152 1     -7.369061996   -188.746365210     50.665568791
153 153 1   -267.830522675    431.524700190   -582.952167645
154 154 1   -421.526923998   -139.330709426   -209.720021626
155 155 1    333.814809574   -347.546505667   -626.699301176
156 156 1     -7.210129768    387.261504935   -286.257077578
157 157 1   -215.579190637   -362.769743963    598.953412869
158 158 1    624.668611799    373.646272411    -69.819711137
159 159 1    629.425358493    -10.035991392   -296.364484674
160 160 1    286.474900274   -439.242854713    371.620240394
161 161 1    336.898834242    164.401298867    -47.287336154
162 162 1   -457.291642872    161.722924731    651.576779655
163 163 1    259.263906047     83.511645036    105.090489292
164 164 1    274.604499895    592.935644970   -286.890609490
165 165 1   -424.603815558    404.467116944     24.944400850
166 166 1    344.259813249   -215.197222865    260.707258346
167 167 1   -262.114711946    230.951386625    733.291435650
168 168 1    415.563077367     68.020729447   -280.113170166
169 169 1    125.869564140    289.305881901    198.925491602
170 170 1    -20.211749045    381.753432186   -122.577046716
171 171 1    243.119126392    218.944231158    843.016001155
172 172 1    -64.254857159     22.119218172   -461.114315663
173 173 1     99.662832857    -58.598120196   -226.617673735
174 174 1   -283.465632270    -16.061370051    199.065021626
175 175 1   -495.455670482   -348.496171320    -47.558132018
176 176 1   -403.660740711    445.227171531    358.587382007
177 177 1      4.849302135    166.386409405     92.101795947
178 178 1   -436.022858388    -30.833458608    263.060291939
179 179 1    -26.372335786   -389.128981105   -110.156062147
180 180 1    255.445383583    444.552845266   -426.463715621
181 181 1   -274.122599831   -268.654064456   1129.485809363
182 182 1    138.603392819   -249.054670482   -385.210925153
183 183 1   -618.881495276   -417.835034537    230.241009237
184 184 1     94.496408555   -220.384635523   -400.428120408
185 185 1    128.462693784   -273.683437015     -1.981094861
186 186 1     25.715779404   -174.885118832   -430.134130799
187 187 1   -142.290405731   -173.637763280   -245.038516691
188 188 1   -383.779916860    696.881861852    667.959720028
189 189 1   -927.723990342   -101.856393974     73.143478103
190 190 1    309.073890616   -273.862262020   -182.046524773
191 191 1    105.677146441    320.012432397    -43.634525456
192 192 1   -182.185358282   -444.847718141    163.416509553
193 193 1   -543.176355973    256.539426202    231.092599099
194 194 1   -256.789691475    518.131152214   -148.954389145
195 195 1   -433.568916438    530.255773882    128.722312932
196 196 1    -99.438591234   -210.318282070   -291.036739556
197 197 1   -272.516876128     74.975850274    250.598125237
198 198 1    696.497263175    -58.930746398    339.078270313
199 199 1   -269.237881901   -118.872155889   -543.910620092
200 200 1   -294.065446673    235.748011757   -150.508183288
201 201 1    372.020220345   -336.235977641      5.258618283
202 202 1    121.191984780    199.401163027     76.857059762
203 203 1    228.762990553   -135.063418120    399.044205857
204 204 1   -783.296434284    602.538882112    461.933753411
205 205 1   -431.845469032   -227.583617993    305.237903316
206 206 1     68.725160876   -494.801441844    961.439189060
207 207 1    -20.152788568      2.722170631    650.251497374
208 208 1   -343.942853348     87.562935996    593.617512073
209 209 1     36.338541917    300.272034326    401.059903738
210 210 1    413.556658514    289.926459374   -395.187767688
211 211 1     93.258169926   -267.782652320    872.145251207
212 212 1   -308.880122506    137.642970081    277.181230736
213 213 1    475.873248687   -425.158944259     77.969197343
214 214 1    458.053804956   -183.337398803   -397.889062880
215 215 1     96.121196221    550.251673524    225.899224963
216 216 1    -89.179576570    -57.648507675   -344.315789103
217 217 1     14.588287687    162.457983414    162.534936699
218 218 1   -356.328558578     66.861869799   -406.663825005
219 219 1   -251.259723914     86.181244982    -99.021329172
220 220 1    680.225746694    538.950256037    -19.210003254
221 221 1    165.843224963   -488.519809363     96.659304166
222 222 1    190.298460528     15.885906215    -60.240628554
223 223 1   -289.136404998   -559.324145076    477.362928617
224 224 1    -76.328100284    385.217090700   -289.370240394
225 225 1    446.937459585    112.866110961   -481.778890616
226 226 1   -449.153287843    471.642108441   -200.532017951
227 227 1   -260.423907202    102.979322802   -437.493545456
228 228 1     10.134903026   -456.165065189    492.012971447
229 229 1    -64.962936353    657.905768110   -351.600785850
230 230 1   -309.035859331    371.686230736   -178.778126181
231 231 1   -657.088834242    600.156836973   -406.748048814
232 232 1   -169.280201450    293.038008293    -68.459811432
233 233 1    237.447352299   -605.961096684      9.790073687
234 234 1    -33.650819945    248.292085660   -138.321218768
235 235 1   -260.339708272   -239.692033593    138.144045350
236 236 1   -394.266384527    -31.444681955    174.771315241
237 237 1    188.148382428    522.529704808    731.367523830
238 238 1    255.409274721   -266.198121352   -229.443482154
239 239 1   -481.157665653   -619.833882323    216.949836762
240 240 1    321.020353664     34.959183824    390.316490236
241 241 1     47.398053810    326.506094164   -456.561758451
242 242 1     74.129087518   -459.770693784     -5.500642929
243 243 1    305.707762126    355.670639409   -489.879331095
244 244 1    181.675353664   -589.173035903    125.630537895
245 245 1    136.220083140   -677.047469243    820.769478480
246 246 1     51.925276862   1219.943845266   -397.841995171
247 247 1    307.516425047    -83.279797511   -480.822281126
248 248 1    209.466296346    242.444817656     33.244086594
249 249 1    611.409084716   -276.585168067     32.961143744
250 250 1    445.407759606   -575.770221288    176.512546188
251 251 1    -85.463674953   -528.823778290   -185.263910665
252 252 1   -241.523221710    199.843900063   -213.953427357
253 253 1     -8.847829645   -884.681860486     -2.908260078
254 254 1     -2.893213616   -309.473676044    252.599367941
255 255 1   -285.473315241    195.560312932   -351.612257191
256 256 1      9.471421412     86.308634767    -12.385523956
257 257 1   -238.752462837    148.944430820   -638.294182133
258 258 1    204.949420007    409.860451081   -325.321562041
259 259 1   -252.724379908   -225.745762126    189.769590595
260 260 1    488.987364266    250.133638254    518.089937853
261 261 1    -97.595315703   -167.714998845    248.766060570
262 262 1   -236.277434284    -12.164247512   -283.352360591
263 263 1    723.198821542    412.664881168    143.628918015
264 264 1   -820.803239029   -605.705878437    287.517111904
265 265 1    -27.420211779    111.035735671    -88.379827883
266 266 1    363.146531912   -442.045221288     -9.194805093
267 267 1   -232.863775037   -220.545644970   -685.931443942
268 268 1   -141.560755720   -417.296530968   -150.537551017
269 269 1   -203.809344006     51.998796031     58.642860119
270 270 1   -500.611788159   -328.686734516   -113.122997902
271 271 1    370.825767688    339.815525195    310.779625132
272 272 1    637.910797396    185.094609490    191.748658514
273 273 1    178.431553538    -29.574170385    635.093077578
274 274 1   -177.549635523    130.236808419    -97.630011748
275 275 1    -44.454391423    147.862343795   -286.856948877
276 276 1    -27.056819997    271.935952552    258.388593847
277 277 1    484.169905836   -419.503639409     78.638855122
278 278 1   -625.147166913    399.214009447    204.332654629
279 279 1   -503.560924942   -172.624715199    121.444043985
280 280 1   -309.884273566    168.052001155   -479.137130799
281 281 1    167.319732207   -363.166630694    134.243317972
282 282 1    710.812273777    355.775266849    -69.968698437
283 283 1      2.664965489   -489.667910665   -194.807092587
284 284 1    238.411393763   -281.687519000   -223.562173840
285 285 1     51.227649842   -156.619604660    187.645181922
286 286 1   -122.811666385     60.162391717    393.658971447
287 287 1   -365.502945202   -147.722347680   -493.831333615
288 288 1   -146.025749736   -272.806851249   -252.527388201
289 289 1    409.132739134   -947.796721183    163.259714256
290 290 1   -746.762979740   -319.305836762   -400.809935966
291 291 1   -131.433627441    317.702642872   -466.009058050
292 292 1    -29.696161454    565.825577262   -644.561419064
293 293 1    558.173431031    440.813755931    589.976994960
294 294 1    248.285073903    107.024831200   -199.736422738
295 295 1    -48.182824155    151.517912031   -217.800134263
296 296 1    137.440398592    818.287623766   -116.362315663
297 297 1    770.809826371    321.922638254   -323.487910876
298 298 1   -159.294107075   -189.525614319    237.657613375
299 299 1   -276.619720028   -725.202968927    415.898417698
300 300 1    303.501321436    126.294577262    194.717138359
301 301 1   -204.609459374   -548.616902372     61.139324752
302 302 1    519.338344217   -317.516134685    -24.413999947
303 303 1   -307.796296346    207.433503569   -595.883994960
304 304 1   -157.462992862   -252.385726012     10.048546074
305 305 1   -205.348058261    -36.837215022    268.947693784
306 306 1      7.758863514    -95.689872863   -171.177155889
307 307 1    -80.361787571   -319.858333193   -704.970392609
308 308 1    245.073965252   -452.692192735   -307.136549863
309 309 1   -243.237965674   -406.469585555    264.334778712
310 310 1    200.770057318   -379.765940584    124.847454966
311 311 1    526.187982049   -468.705410982   -789.778739345
312 312 1    -90.225035576    103.652817656    123.630671636
313 313 1    249.279651376    -61.449929834    195.845943837
314 314 1    312.378897754      4.688429001    181.946638254
315 315 1    158.144336867     33.061212661    -95.690588159
316 316 1    701.417709426   -568.132235987    535.043314298
317 317 1   -313.528591749    690.537043985    568.589683604
318 318 1   -119.765364477    410.594398592     31.700465694
319 319 1    -65.035751900   -170.600362901   -316.901104977
320 320 1    305.315418120    271.337922633    563.907807265
321 321 1   -121.701230947    350.236514382     35.018690511
322 322 1   -532.241301387   -546.237279550    205.360957170
323 323 1     26.226373608    -43.123539671   -155.405160507
324 324 1    236.641026455    555.814754776     15.391636070
325 325 1   -348.521159563    440.447824062    758.893338233
326 326 1    140.799383372    -12.914485336   -345.480979950
327 327 1    284.184723703    175.082511651   -450.104534432
328 328 1    624.464055741    559.770480789   -192.297877494
329 329 1   -319.503508187   -286.818121352   -511.005789525
330 330 1    -69.457970386    216.956162084   -560.468412869
331 331 1    142.310795086    508.323839493   -494.007102246
332 332 1     73.595202961   -260.146171320   -567.770719296
333 333 1    210.605319127    638.892050912    475.081588075
334 334 1    148.917005773   -513.302964308    -20.680740845
335 335 1     70.861916377   -208.714002309    321.751224019
336 336 1   -437.207012911    -51.558696652    248.522146230
337 337 1   -309.913469243    427.071201239   -280.234552172
338 338 1   -283.220784695   -460.165142767    416.311118832
339 339 1    -90.906830391   -127.895769997   -789.251081985
340 340 1    800.336057107    272.542377599   -179.428796241
341 341 1    441.887733572     98.177170312     48.270565347
342 342 1    344.382874974    431.154596157    -23.287986332
343 343 1     80.488714015   -254.751016586    -89.756690330
344 344 1    110.463859542     -0.769396386    915.498323534
345 345 1    130.251797396   -431.938828469    380.490242703
346 346 1    256.691119254    234.992702499    255.291096262
347 347 1     85.043432373     53.652981808     38.096725867
348 348 1    238.946705963    123.108225907   -619.808924942
349 349 1    311.428010813   -596.203484252     83.588213836
350 350 1    429.125266639    222.743862062    378.723881901
351 351 1   -466.664633214   -248.274154523    378.175653685
352 352 1     29.634197470   -265.456022781    129.477733572
353 353 1    498.487655994   -685.108267582    494.694016586
354 354 1    -51.404132585   -591.835542725     26.817492462
355 355 1    124.257146652    213.693324900   -545.184466512
356 356 1   -189.653839282    227.669690742    377.628317972
357 357 1    355.841233467   -392.244287843     -7.989083571
358 358 1    136.787503569   -472.655115368    652.219963365
359 359 1   -518.879711003   -459.078684548   -687.240028553
360 360 1     63.637191392     72.075374836    -71.453575289
361 361 1    -57.930858368   -470.299583245    -94.842260193
362 362 1    199.298592693    179.022286688    434.165436804
363 363 1    509.005151271     16.948771016   -212.372764013
364 364 1   -795.919091855   -102.153358282    820.330216881
365 365 1    539.354771573   -843.359726012   -299.751446252
366 366 1    287.322496431    242.645438170    289.424386625
367 367 1    258.134481211   -131.178678564   -428.781513228
368 368 1   -280.216892925   -444.862873608    -76.406700041
369 369 1   -382.593637832   -176.947975121   -302.862034537
370 370 1   -250.759376023     34.407630538    141.911148961
371 371 1   -326.139148751     20.858104492     66.193045444
372 372 1    656.574278817   -219.387407096   -349.754268004
373 373 1   -408.618990342     71.773237708   -202.494230003
374 374 1   -303.100180768    330.872682239    271.934985512
375 375 1    -34.842359762    -83.380888379     43.124117960
376 376 1   -575.181766955     61.582613311   -536.035859542
377 377 1     29.653039659   -145.486841802    482.130427146
378 378 1   -446.408602351   -335.388311778    387.199686646
379 379 1   -135.568863217    497.071032017     43.853581555
380 380 1    112.027807265    -37.024422979    213.933418120
381 381 1    342.150015642   -263.681624921    108.751021204
382 382 1   -120.349369306   -476.233002309    281.389660824
383 383 1    114.443598888     19.517706592    -95.488541698
384 384 1   -786.546351355    208.698181189   -500.934217825
385 385 1   -156.161256980   -189.917956015    335.302587864
386 386 1   -308.250279761   -159.606653685    169.634522886
387 387 1   -177.194908145   -419.621640563   -154.422209321
388 388 1   -176.221396283   -212.632690321   -226.274754566
389 389 1    -58.477625992    -73.447959680    169.063759606
390 390 1   -447.989664076    273.431296346      8.945518746
391 391 1    -17.718016408   -250.529407307    246.570454544
392 392 1    503.679259500   -117.371413080   -404.636711003
393 393 1    155.522384527     40.660134494   -214.299437015
394 394 1    880.784660824     55.126612576     -4.988225599
395 395 1     69.440441571    286.101186751   -111.523705752
396 396 1   -859.102379908   -251.748971658    -94.619376684
397 397 1   -200.516916438   -752.788536741   -153.983778501
398 398 1    311.596284801    282.115594058   -213.810144132
399 399 1   -236.192192735     83.337126726    378.919028764
400 400 1     44.275657053   -551.218851039   -192.544598677
401 401 1    -45.297120366    -76.562624134   -342.649481211
402 402 1   -307.140561620   -269.155134474    -87.247861180
403 403 1    127.113838127    161.272158409    209.683050912
404 404 1    484.418713101   -289.724732207    154.317002098
405 405 1    152.131959479   -518.013733151    310.292125970
406 406 1    129.614049968    146.513546610   -119.857146652
407 407 1   -492.713418120    395.765845266   -100.468465357
408 408 1   -157.246389145   -428.546057107   -826.516896178
409 409 1    385.141709637    101.231483098    191.653023935
410 410 1   -456.668905836   -212.456140458   -137.291858599
411 411 1    174.889409405    400.482917593    -15.275666198
412 412 1   -792.261403632   -566.357232101    130.589501471
413 413 1     72.896640647   -156.348632059    122.502734305
414 414 1   -220.521914551   -222.616347680   -292.393675100
415 415 1   -153.752144132   -637.085358282     67.308658368
416 416 1    -90.561565672     99.559438505     14.152055742
417 417 1    -37.452385860   -244.288470187    371.001337811
418 418 1      2.267959677    249.421391665     13.454769463
419 419 1    247.696221710     50.237713994    133.005651165
420 420 1    -92.618050881     32.597306214   -529.913271468
421 421 1     69.757729645   -611.254876339   -154.039041886
422 422 1   -150.129662189     -6.735198285   -414.764553538
423 423 1   -249.922188117    -10.505441380    227.293672580
424 424 1    -36.922303800    213.477475016    130.016456854
425 425 1   -485.376313354    -27.786020439    -80.874527483
426 426 1   -115.738994960   -402.853475016    124.842431031
427 427 1    216.616730841    199.851560676     92.699868663
428 428 1    398.477102246   -424.590509764    387.910857233
429 429 1   -140.522282070   -599.247323534   -254.376746484
430 430 1    385.016308314   -129.372775037   -744.178953284
431 431 1    312.277385681    -69.696009554     94.088945581
432 432 1   -338.415834664   -810.311055741   -585.674277241
433 433 1    215.595707117    -62.038873673   -266.565683604
434 434 1   -370.923285744    518.228166491   -473.995916438
435 435 1    429.271902583    277.369328364    227.784223809
436 436 1   -106.168436804    -18.531982113    -13.179774103
437 437 1   -334.978678775   -265.844855868     79.501879950
438 438 1   -228.034420007    424.029201028   -140.911284590
439 439 1    -32.199957673   -297.166853770    741.965276086
440 440 1   -105.137373714    173.889496220    618.753665653
441 441 1   -283.744778290    444.426186962   -256.296448772
442 442 1    -76.491526087    360.224512806   -422.799657149
443 443 1    -56.656673568    153.202928406   -235.691448772
444 444 1    400.940615262    -82.418988021    872.330334558
445 445 1   -252.506065611   -407.604200084     41.690594519
446 446 1   -437.461498951   -227.470539472   -137.086215305
447 447 1   -183.091599099   -808.861363112   -193.545349989
448 448 1      8.239929374    396.618704808     72.552439913
449 449 1   -325.326056163   -180.225633214    690.979638254
450 450 1    -64.992315569    411.880136783   -128.382802225
451 451 1   -133.481957381   -173.404865315   -106.892823851
452 452 1    209.244873819    273.269568758    525.228992862
453 453 1    394.581707117    101.828718141   -432.747585766
454 454 1    -85.391722979    199.565047870    585.559715621
455 455 1      2.774623605   -403.039906991      2.656804017
456 456 1    199.039701344   -444.179014488    227.791333193
457 457 1    598.041526350    255.223845055    -44.450905794
458 458 1   -268.661497585   -493.074308314    -70.178357192
459 459 1    -91.423301983   -184.161393974   -279.547042830
460 460 1    108.222812094      1.945239665   -247.944989398
461 461 1    793.585819022   -131.927476381   -406.731342640
462 462 1   -438.126159774    348.526878437    296.621924942
463 463 1   -295.925056163   -328.714987089    144.673897543
464 464 1    326.558196199   -373.907479634    411.109248687
465 465 1     49.687720324     21.931484286    147.549271679
466 466 1    636.376923787     65.474054881    512.013637832
467 467 1    384.505501260   -252.341179613   -153.800154523
468 468 1    758.460145498   -251.974263175    246.613395340
469 469 1   -342.174464414    120.491909722    353.722543879
470 470 1   1017.080773671     37.115898929    -67.397825699
471 471 1     81.122645613   -562.526809574   -122.559255826
472 472 1   -118.229420218     20.793117111     37.844465189
473 473 1   -182.087363112    126.919153791   -529.752187906
474 474 1    212.038936699     31.767185041     25.734113740
475 475 1   -102.948693052    200.406705752   -415.761289208
476 476 1    583.557437015   -246.151096473   -102.028082407
477 477 1   -326.051284379    454.388258557     56.521310717
478 478 1   -296.465970081    -82.162661138    358.618042619
479 479 1   -810.945495065   -635.960930926    368.459587864
480 480 1    -99.945828563   -200.262508187    -47.381492359
481 481 1   -311.815698613   -165.648328785   -142.919153580
482 482 1   -213.792454755   -130.936349046    -65.748920784
483 483 1    374.011202183    -42.516389312    -66.753199633
484 484 1    206.854726012    263.221921267   -451.403033172
485 485 1   -313.382895023    562.876140669    -37.998102646
486 486 1   -382.082154734    236.489047870    807.520612953
487 487 1     40.404713847   -529.315901429    158.601749947
488 488 1   -106.927442577   -148.916189271   -547.051449926
489 489 1    280.334649067    261.955336867   -416.598591538
490 490 1     29.695307431   -316.368660824     78.927614570
491 491 1   -298.492039155   -567.967489503    152.751834664