LAMMPS data file. msi2lmp v3.9.10 / 10 Mar 2023 / CGCMM for dgebf_a30

   1410 atoms
   1440 bonds
   2460 angles
   3360 dihedrals
    360 impropers

   6 atom types
   9 bond types
  15 angle types
  20 dihedral types

   -12.536350000    12.536350000 xlo xhi
   -12.536350000    12.536350000 ylo yhi
   -12.536350000    12.536350000 zlo zhi

Masses

   1   1.000000 # H_
   2   1.000000 # C_3
   3   1.000000 # O_3
   4   1.000000 # O_R
   5   1.000000 # C_R
   6   1.000000 # H___A

Pair Coeffs # lj/cut/coul/long

   1   0.0000000000   0.0000000000 # H_
   2   0.0000000000   0.0000000000 # C_3
   3   0.0000000000   0.0000000000 # O_3
   4   0.0000000000   0.0000000000 # O_R
   5   0.0000000000   0.0000000000 # C_R
   6   0.0000000000   0.0000000000 # H___A

Bond Coeffs # harmonic

   1     0.0000     0.0000 # H_-C_3
   2     0.0000     0.0000 # C_3-C_3
   3     0.0000     0.0000 # C_3-O_3
   4     0.0000     0.0000 # O_3-H___A
   5     0.0000     0.0000 # C_3-O_R
   6     0.0000     0.0000 # O_R-C_R
   7     0.0000     0.0000 # C_R-C_R
   8     0.0000     0.0000 # H_-C_R
   9     0.0000     0.0000 # C_3-C_R

Angle Coeffs # harmonic

   1     0.0000     0.0000 # H_-C_3-C_3
   2     0.0000     0.0000 # H_-C_3-H_
   3     0.0000     0.0000 # C_3-O_3-H___A
   4     0.0000     0.0000 # C_3-C_3-O_3
   5     0.0000     0.0000 # C_3-C_3-C_3
   6     0.0000     0.0000 # H_-C_3-O_3
   7     0.0000     0.0000 # C_3-C_3-O_R
   8     0.0000     0.0000 # H_-C_3-O_R
   9     0.0000     0.0000 # C_3-O_R-C_R
  10     0.0000     0.0000 # O_R-C_R-C_R
  11     0.0000     0.0000 # C_R-C_R-C_R
  12     0.0000     0.0000 # H_-C_R-C_R
  13     0.0000     0.0000 # C_3-C_R-C_R
  14     0.0000     0.0000 # C_R-C_3-C_R
  15     0.0000     0.0000 # H_-C_3-C_R

Dihedral Coeffs # opls

   1     0.0000     0.0000     0.0000     0.0000 # H_-C_3-C_3-O_3
   2     0.0000     0.0000     0.0000     0.0000 # H_-C_3-C_3-C_3
   3     0.0000     0.0000     0.0000     0.0000 # H_-C_3-C_3-H_
   4     0.0000     0.0000     0.0000     0.0000 # C_3-C_3-O_3-H___A
   5     0.0000     0.0000     0.0000     0.0000 # H_-C_3-O_3-H___A
   6     0.0000     0.0000     0.0000     0.0000 # C_3-C_3-C_3-O_R
   7     0.0000     0.0000     0.0000     0.0000 # O_3-C_3-C_3-O_R
   8     0.0000     0.0000     0.0000     0.0000 # H_-C_3-C_3-O_R
   9     0.0000     0.0000     0.0000     0.0000 # C_3-C_3-O_R-C_R
  10     0.0000     0.0000     0.0000     0.0000 # H_-C_3-O_R-C_R
  11     0.0000     0.0000     0.0000     0.0000 # C_3-O_R-C_R-C_R
  12     0.0000     0.0000     0.0000     0.0000 # O_R-C_R-C_R-C_R
  13     0.0000     0.0000     0.0000     0.0000 # H_-C_R-C_R-O_R
  14     0.0000     0.0000     0.0000     0.0000 # C_R-C_R-C_R-C_R
  15     0.0000     0.0000     0.0000     0.0000 # H_-C_R-C_R-C_R
  16     0.0000     0.0000     0.0000     0.0000 # H_-C_R-C_R-H_
  17     0.0000     0.0000     0.0000     0.0000 # C_3-C_R-C_R-C_R
  18     0.0000     0.0000     0.0000     0.0000 # H_-C_R-C_R-C_3
  19     0.0000     0.0000     0.0000     0.0000 # C_R-C_3-C_R-C_R
  20     0.0000     0.0000     0.0000     0.0000 # H_-C_3-C_R-C_R

Improper Coeffs # cvff

    1     0.0000   0   0 # O_R-C_R-C_R-C_R
    2     0.0000   0   0 # H_-C_R-C_R-C_R
    3     0.0000   0   0 # C_3-C_R-C_R-C_R

Atoms # full

      1      1   1  0.025800    -2.594570998    -9.734987989     8.403323513   1   1   0 # H_
      2      1   2 -0.036600    -2.717887672    -9.548693113     9.369441096   1   1   0 # C_3
      3      1   3 -0.391000    -2.388663891    -8.691440633    10.510403788   1   1   0 # O_3
      4      1   2  0.075000    -3.301619396    -8.287854013     9.718591299   1   1   0 # C_3
      5      1   1  0.025800    -3.709199180    -9.751749756     8.905020243   1   1   0 # H_
      6      1   2  0.079000    -3.482605262    -7.223066029    10.625760090   1   1   0 # C_3
      7      1   1  0.062200    -3.426449893    -8.974064383    10.573257861   1   1   0 # H_
      8      1   4 -0.343500    -4.354773195    -7.613145708    11.609807947   1   1   0 # O_R
      9      1   1  0.060000    -2.637545324    -6.880726525    11.165555538   1   1   0 # H_
     10      1   1  0.060000    -3.301039082    -6.249703714    10.346678488   1   1   0 # H_
     11      1   5  0.075000    -4.688973542    -6.640403650    12.162573663   1   1   0 # C_R
     12      1   5 -0.031500    -3.764940805    -5.599671336    12.505989864   1   1   0 # C_R
     13      1   5 -0.031500    -5.960832709    -6.532830640    11.840133014   1   1   0 # C_R
     14      1   5 -0.056100    -3.680880116    -4.377375703   -12.224944701   1   1   1 # C_R
     15      1   1  0.065100    -2.921262793    -5.566476369    12.363464035   1   1   0 # H_
     16      1   5 -0.056100    -6.257576880    -5.342680099    12.324479449   1   1   0 # C_R
     17      1   1  0.065100    -6.523384536    -7.200499039    11.321042834   1   1   0 # H_
     18      1   5 -0.043400    -5.146027906    -4.369342393   -12.310506915   1   1   1 # C_R
     19      1   1  0.062700    -2.853661152    -4.093681836   -11.477985077   1   1   1 # H_
     20      1   1  0.062700    -7.198897404    -5.496090475   -12.489278567   1   1   1 # H_
     21      1   2 -0.002600    -5.009266224    -4.002743830   -11.146706228   1   1   1 # C_3
     22      1   5 -0.043400    -5.519323546    -3.318724398   -10.544446850   1   1   1 # C_R
     23      1   5 -0.056100    -4.417082901    -2.692025677    -9.801595604   1   1   1 # C_R
     24      1   5 -0.056100    -6.919127677    -3.541577195   -10.593048303   1   1   1 # C_R
     25      1   5 -0.031500    -4.992650538    -1.938659895    -8.915627157   1   1   1 # C_R
     26      1   1  0.062700    -3.431175597    -2.742521016    -9.961428178   1   1   1 # H_
     27      1   5 -0.031500    -7.044145950    -2.992685577    -9.464762706   1   1   1 # C_R
     28      1   1  0.062700    -7.605874097    -4.148043457   -11.198637477   1   1   1 # H_
     29      1   5  0.075000    -6.310365206    -2.089326857    -8.652877219   1   1   1 # C_R
     30      1   1  0.065100    -4.518411193    -1.164935258    -8.615440983   1   1   1 # H_
     31      1   1  0.065100    -7.859633540    -2.789707208    -9.982152333   1   1   1 # H_
     32      1   4 -0.343500    -6.890849175    -1.031807153    -9.088982819   1   1   1 # O_R
     33      1   2  0.079000    -8.285801746    -0.911718574    -8.503504858   1   1   1 # C_3
     34      1   2  0.075000    -8.896890525    -0.629636336    -6.821748129   1   1   1 # C_3
     35      1   1  0.060000    -8.661188406    -1.923811940    -8.449298328   1   1   1 # H_
     36      1   1  0.060000    -8.861967155    -1.217845458    -9.421578763   1   1   1 # H_
     37      1   3 -0.391000    -9.633307009     0.022327349    -7.840728393   1   1   1 # O_3
     38      1   2 -0.036600    -7.818884595    -0.143125184    -5.868139863   1   1   1 # C_3
     39      1   1  0.062200    -9.591068639     0.150581718    -6.056369057   1   1   1 # H_
     40      1   1  0.025800    -7.205473562    -0.156379182    -6.722434913   1   1   1 # H_
     41      1   1  0.025800    -7.691316422     0.054835468    -4.564633504   1   1   1 # H_
     42      1   1  0.036600    -5.309239136    -4.938551159   -10.821316017   1   1   1 # H_
     43      1   1  0.036600    -4.843621861    -4.693977310   -10.380825178   1   1   1 # H_
     44      1   1  0.025800    -1.624241531    -9.633041136     9.009549049   1   1   0 # H_
     45      1   1  0.025800    -7.866331170     0.707066929    -6.431656719   1   1   1 # H_
     46      1   6  0.210600   -10.344837672    -0.600379691    -8.249083543   1   1   1 # H___A
     47      1   6  0.210600    -1.669010225    -8.071883545    10.771818905   1   1   0 # H___A
     48      2   1  0.025800     8.561868882     2.701018680    -6.162521895   0   1   1 # H_
     49      2   2 -0.036600     9.158358385     2.361852811    -6.896328606   0   1   1 # C_3
     50      2   3 -0.391000     7.472950435     1.032212709    -8.355930616   0   1   1 # O_3
     51      2   2  0.075000     8.756726870     1.329569848    -7.887659834   0   1   1 # C_3
     52      2   1  0.025800     9.831979124     2.112644557    -6.037342546   0   1   1 # H_
     53      2   2  0.079000     9.508378844     0.262573932    -8.190265251   0   1   1 # C_3
     54      2   1  0.062200     8.640988979     0.778786092    -7.026544476   0   1   1 # H_
     55      2   4 -0.343500    10.587184896     0.209802914    -7.301645091   0   1   1 # O_R
     56      2   1  0.060000     8.963823255    -0.690981805    -8.092612729   0   1   1 # H_
     57      2   1  0.060000     9.228171237    -0.303181766    -9.052417565   0   1   1 # H_
     58      2   5  0.075000    11.432820959    -0.430917022    -7.859751619   0   1   1 # C_R
     59      2   5 -0.031500    11.044428447    -1.558038624    -8.690704778   0   1   1 # C_R
     60      2   5 -0.031500    12.419763316    -0.415892744    -6.922403369   0   1   1 # C_R
     61      2   5 -0.056100    11.711481235    -2.391024822    -9.308337276   0   1   1 # C_R
     62      2   1  0.065100    10.167585888    -2.073156631    -8.571158391   0   1   1 # H_
     63      2   5 -0.056100   -11.792477261    -1.333867009    -7.331666577   1   1   1 # C_R
     64      2   1  0.065100    12.349280055    -0.132303507    -5.910754405   0   1   1 # H_
     65      2   5 -0.043400   -12.111702882    -2.178772499    -8.547873221   1   1   1 # C_R
     66      2   1  0.062700    11.099297955    -3.288649479    -9.702593094   0   1   1 # H_
     67      2   1  0.062700   -11.270194755    -1.636281463    -6.500072706   1   1   1 # H_
     68      2   2 -0.002600   -12.154795504    -3.422157688    -8.554463582   1   1   1 # C_3
     69      2   5 -0.043400   -11.476304589    -4.210515681    -8.394026933   1   1   1 # C_R
     70      2   5 -0.056100   -12.039917234    -5.207994534    -9.388837105   1   1   1 # C_R
     71      2   5 -0.056100   -10.422302320    -4.072821362    -7.451652183   1   1   1 # C_R
     72      2   5 -0.031500   -11.339553292    -6.245160109    -9.641813021   1   1   1 # C_R
     73      2   1  0.062700    12.086689652    -5.219963655    -9.804101001   0   1   1 # H_
     74      2   5 -0.031500   -10.024203534    -5.188987911    -7.705337206   1   1   1 # C_R
     75      2   1  0.062700   -10.211425354    -3.408121183    -6.667026875   1   1   1 # H_
     76      2   5  0.075000   -10.285527404    -6.173281520    -8.790430512   1   1   1 # C_R
     77      2   1  0.065100   -11.670267508    -6.967360282   -10.246509117   1   1   1 # H_
     78      2   1  0.065100    -9.380916137    -5.179610607    -6.968107107   1   1   1 # H_
     79      2   4 -0.343500    -9.757333046    -7.223447868    -8.890660786   1   1   1 # O_R
     80      2   2  0.079000    -8.591722301    -7.095866257    -8.179640480   1   1   1 # C_3
     81      2   2  0.075000    -7.967233239    -8.255718183    -8.310073751   1   1   1 # C_3
     82      2   1  0.060000    -8.844716522    -7.104483635    -7.166755463   1   1   1 # H_
     83      2   1  0.060000    -8.008669008    -6.176539051    -7.916751672   1   1   1 # H_
     84      2   3 -0.391000    -6.780755799    -8.024983753    -7.659476569   1   1   1 # O_3
     85      2   2 -0.036600    -7.822496763    -8.930715535    -9.559585712   1   1   1 # C_3
     86      2   1  0.062200    -7.752539573    -7.633263456    -9.152692368   1   1   1 # H_
     87      2   1  0.025800    -7.891977009    -9.901193011    -9.455870053   1   1   1 # H_
     88      2   1  0.025800    -8.700948913    -9.005131004   -10.257717762   1   1   1 # H_
     89      2   1  0.036600   -12.353623717    -3.354962300    -7.665845771   1   1   1 # H_
     90      2   1  0.036600    12.354521636    -3.918178311    -7.927543320   0   1   1 # H_
     91      2   1  0.025800     8.075588823     2.496442018    -6.845175391   0   1   1 # H_
     92      2   1  0.025800    -7.026728855    -9.565113183    -9.242373353   1   1   1 # H_
     93      2   6  0.210600    -7.031426070    -7.344494990    -7.019266628   1   1   1 # H___A
     94      2   6  0.210600     7.563752379     0.111631103    -8.661041818   0   1   1 # H___A
     95      3   1  0.025800     8.416784284    -4.362527695    -4.724375935   0   1   1 # H_
     96      3   2 -0.036600     8.790052906    -4.861150111    -5.486362851   0   1   1 # C_3
     97      3   3 -0.391000     7.006457999    -6.450207781    -6.043140938   0   1   1 # O_3
     98      3   2  0.075000     8.318161591    -6.084156852    -5.954942971   0   1   1 # C_3
     99      3   1  0.025800     9.720344233    -4.811917472    -4.883235449   0   1   1 # H_
    100      3   2  0.079000     9.028745387    -7.086362693    -6.226395677   0   1   1 # C_3
    101      3   1  0.062200     8.728392560    -6.466242178    -5.064028190   0   1   1 # H_
    102      3   4 -0.343500    10.184499066    -6.588136149    -6.658790800   0   1   1 # O_R
    103      3   1  0.060000     8.644887257    -7.247229816    -7.194915294   0   1   1 # H_
    104      3   1  0.060000     8.642145722    -8.108134745    -6.039671212   0   1   1 # H_
    105      3   5  0.075000    10.907097713    -7.521209021    -6.710690075   0   1   1 # C_R
    106      3   5 -0.031500    10.366556495    -8.746994814    -7.337993858   0   1   1 # C_R
    107      3   5 -0.031500    12.158853010    -7.062171815    -6.738350853   0   1   1 # C_R
    108      3   5 -0.056100    10.711381374    -9.497150119    -8.211665424   0   1   1 # C_R
    109      3   1  0.065100     9.457664621    -9.061341569    -7.456862842   0   1   1 # H_
    110      3   5 -0.056100   -12.258892757    -7.886729102    -7.424071997   1   1   1 # C_R
    111      3   1  0.065100   -12.488248183    -6.271526988    -6.489137201   1   1   1 # H_
    112      3   5 -0.043400    12.041902124    -8.992797442    -8.123428345   0   1   1 # C_R
    113      3   1  0.062700    10.271720814   -10.337174785    -8.649627874   0   1   1 # H_
    114      3   1  0.062700   -11.274715488    -7.811360409    -7.343786922   1   1   1 # H_
    115      3   2 -0.002600   -12.393576825    -9.477594375    -8.853959808   1   1   1 # C_3
    116      3   5 -0.043400   -12.004716773   -10.416476371    -9.389850083   1   1   1 # C_R
    117      3   5 -0.056100    12.343185907   -11.637335387    -9.817010697   0   1   1 # C_R
    118      3   5 -0.056100   -10.628640383    -9.984337137    -9.260227694   1   1   1 # C_R
    119      3   5 -0.031500   -11.998437006    12.422709971   -10.211242210   1   0   1 # C_R
    120      3   1  0.062700    11.399728107   -11.829321917    -9.695283494   0   1   1 # H_
    121      3   5 -0.031500   -10.223256340   -11.114441870    -9.442976426   1   1   1 # C_R
    122      3   1  0.062700   -10.192331031    -9.302385657    -8.544057416   1   1   1 # H_
    123      3   5  0.075000   -10.717154906   -12.306661756   -10.046749750   1   1   1 # C_R
    124      3   1  0.065100   -12.367592289    11.555917883   -10.517474728   1   0   1 # H_
    125      3   1  0.065100    -9.389832772   -10.961614543    -9.151909504   1   1   1 # H_
    126      3   4 -0.343500    -9.953694121    11.888424063   -10.320005350   1   0   1 # O_R
    127      3   2  0.079000    -8.781573727    12.514651611   -10.763626588   1   0   1 # C_3
    128      3   2  0.075000    -7.989069761    11.529141305   -11.096176526   1   0   1 # C_3
    129      3   1  0.060000    -8.316451774   -12.396181678    -9.840741144   1   1   1 # H_
    130      3   1  0.060000    -8.480050687   -11.493561018   -10.897169972   1   1   1 # H_
    131      3   3 -0.391000    -6.804230888    12.133817957   -11.395614221   1   0   1 # O_3
    132      3   2 -0.036600    -8.467495036    10.516727786   -11.903091336   1   0   1 # C_3
    133      3   1  0.062200    -8.575387085    11.901259171   -11.950373039   1   0   1 # H_
    134      3   1  0.025800    -8.217588845     9.619402745   -12.022594874   1   0   1 # H_
    135      3   1  0.025800    -9.126546867    10.001966723   -11.190860041   1   0   1 # H_
    136      3   1  0.036600   -12.174437615    -9.880270981    -7.866423462   1   1   1 # H_
    137      3   1  0.036600   -12.461348492   -10.302258936    -8.201241083   1   1   1 # H_
    138      3   1  0.025800     8.107210962    -4.230977226    -5.943269461   0   1   1 # H_
    139      3   1  0.025800    -7.456510196    10.241035029   -12.147978389   1   0   1 # H_
    140      3   6  0.210600    -6.817056932   -12.226073619   -10.754991887   1   1   1 # H___A
    141      3   6  0.210600     7.089275489    -7.386687904    -6.280799157   0   1   1 # H___A
    142      4   1  0.025800   -10.566140860    -7.307977478     6.782818388   1   1   0 # H_
    143      4   2 -0.036600   -10.930988092    -7.603786831     7.676989553   1   1   0 # C_3
    144      4   3 -0.391000   -12.000820485    -6.026393674     8.946241143   1   1   0 # O_3
    145      4   2  0.075000   -12.171725900    -7.071190409     8.135973094   1   1   0 # C_3
    146      4   1  0.025800   -11.048235698    -8.544351343     7.122926962   1   1   0 # H_
    147      4   2  0.079000    11.854523499    -7.602419145     8.782473615   0   1   0 # C_3
    148      4   1  0.062200   -11.774866057    -7.703864326     8.851180360   1   1   0 # H_
    149      4   4 -0.343500    11.504363203    -8.644223696     7.979907517   0   1   0 # O_R
    150      4   1  0.060000    11.109161387    -6.916078938     8.528371159   0   1   0 # H_
    151      4   1  0.060000    11.497376492    -7.224127690     9.754879525   0   1   0 # H_
    152      4   5  0.075000    10.543748231    -9.130334214     8.626455923   0   1   0 # C_R
    153      4   5 -0.031500     9.539814434    -8.407200275     9.399175029   0   1   0 # C_R
    154      4   5 -0.031500    11.092155931   -10.330318647     8.897672993   0   1   0 # C_R
    155      4   5 -0.056100     9.013145865    -8.816025337    10.522153953   0   1   0 # C_R
    156      4   1  0.065100     9.542429189    -7.480642104     9.688412447   0   1   0 # H_
    157      4   5 -0.056100    10.515702649   -10.748761940    10.073095410   0   1   0 # C_R
    158      4   1  0.065100    11.721005683   -10.816491398     8.218619425   0   1   0 # H_
    159      4   5 -0.043400     9.423215828   -10.104750510    10.647283824   0   1   0 # C_R
    160      4   1  0.062700     8.155993291    -8.355086164    10.846331962   0   1   0 # H_
    161      4   1  0.062700    10.546915700   -11.638823563    10.333147412   0   1   0 # H_
    162      4   2 -0.002600     8.360087226   -10.712206960    10.186332148   0   1   0 # C_3
    163      4   5 -0.043400     7.694925280   -11.323213729    10.942065604   0   1   0 # C_R
    164      4   5 -0.056100     6.638404862   -10.459083933    11.393656348   0   1   0 # C_R
    165      4   5 -0.056100     7.804381796    12.409834349    10.501793512   0   0   0 # C_R
    166      4   5 -0.031500     5.481668903   -11.041228147    11.178209081   0   1   0 # C_R
    167      4   1  0.062700     6.593620462    -9.447181770    11.483554626   0   1   0 # H_
    168      4   5 -0.031500     6.591859262    12.119661651    10.336331253   0   0   0 # C_R
    169      4   1  0.062700     8.496002022    11.924668825     9.864135561   0   0   0 # H_
    170      4   5  0.075000     5.485861816   -12.328300639    10.984086990   0   1   0 # C_R
    171      4   1  0.065100     4.680182640   -10.581006478    11.159057296   0   1   0 # H_
    172      4   1  0.065100     6.668452547    11.216875240    10.012342728   0   0   0 # H_
    173      4   4 -0.343500     4.945348225    12.216442666    12.003405591   0   0   0 # O_R
    174      4   2  0.079000     4.664259753    11.008051552    11.384588208   0   0   0 # C_3
    175      4   2  0.075000     3.831744091    10.329676558    12.097453679   0   0   0 # C_3
    176      4   1  0.060000     5.509503433    10.475974802    11.664769071   0   0   0 # H_
    177      4   1  0.060000     4.929097008    10.557209830    10.402069376   0   0   0 # H_
    178      4   3 -0.391000     3.616266554     9.139932089    11.424829482   0   0   0 # O_3
    179      4   2 -0.036600     2.851647701    10.911168590   -12.174735848   0   0   1 # C_3
    180      4   1  0.062200     3.332546496    10.990809035    11.408516795   0   0   0 # H_
    181      4   1  0.025800     2.458595691    10.537199130   -11.403888556   0   0   1 # H_
    182      4   1  0.025800     2.655770970    12.005134146   -12.074859587   0   0   1 # H_
    183      4   1  0.036600     8.382776047   -11.053383445     9.299107197   0   1   0 # H_
    184      4   1  0.036600     7.695276388   -10.278301708     9.492936046   0   1   0 # H_
    185      4   1  0.025800   -10.538857003    -6.613378941     7.503415572   1   1   0 # H_
    186      4   1  0.025800     2.170800384    10.076632566   -12.394986933   0   0   1 # H_
    187      4   6  0.210600     4.523176812     9.010694834    11.118422720   0   0   0 # H___A
    188      4   6  0.210600    12.177221199    -5.661985431     9.081566548   0   1   0 # H___A
    189      5   1  0.025800   -10.144019148     3.072363836    -7.769385863   1   0   1 # H_
    190      5   2 -0.036600    -9.211239777     3.168169523    -8.156088662   1   0   1 # C_3
    191      5   3 -0.391000    -9.191682822     2.717639139   -10.485659927   1   0   1 # O_3
    192      5   2  0.075000    -9.181204907     3.839563936    -9.476623229   1   0   1 # C_3
    193      5   1  0.025800    -9.009088842     3.665332351    -7.188110205   1   0   1 # H_
    194      5   2  0.079000    -8.333927331     4.841551389   -10.206589444   1   0   1 # C_3
    195      5   1  0.062200    -9.541538861     4.943670163    -9.506503788   1   0   1 # H_
    196      5   4 -0.343500    -7.442908443     5.811798752    -9.272428274   1   0   1 # O_R
    197      5   1  0.060000    -7.531708016     4.275783435    -9.827397995   1   0   1 # H_
    198      5   1  0.060000    -7.702390116     4.170479756   -10.700161878   1   0   1 # H_
    199      5   5  0.075000    -6.157626034     5.778651095    -8.808917385   1   0   1 # C_R
    200      5   5 -0.031500    -5.295234964     4.969369923    -9.468860264   1   0   1 # C_R
    201      5   5 -0.031500    -5.695971985     5.648622459    -7.485071470   1   0   1 # C_R
    202      5   5 -0.056100    -4.172831607     5.253848067    -9.771474013   1   0   1 # C_R
    203      5   1  0.065100    -5.074531528     3.974526489    -9.586208412   1   0   1 # H_
    204      5   5 -0.056100    -4.358612004     5.627446691    -7.252697900   1   0   1 # C_R
    205      5   1  0.065100    -6.218335384     5.632217194    -6.616797769   1   0   1 # H_
    206      5   5 -0.043400    -3.712594949     5.439925660    -8.471102701   1   0   1 # C_R
    207      5   1  0.062700    -3.776162646     4.986304805   -10.591063091   1   0   1 # H_
    208      5   1  0.062700    -3.945081247     6.066147379    -6.527412991   1   0   1 # H_
    209      5   2 -0.002600    -2.746474962     5.929973269    -8.944582836   1   0   1 # C_3
    210      5   5 -0.043400    -2.254990648     7.010959178    -9.235006229   1   0   1 # C_R
    211      5   5 -0.056100    -1.648198418     6.922368379   -10.583400806   1   0   1 # C_R
    212      5   5 -0.056100    -1.913869684     7.495305752    -7.992831697   1   0   1 # C_R
    213      5   5 -0.031500    -0.355535195     7.212048255   -10.766739475   1   0   1 # C_R
    214      5   1  0.062700    -1.924243307     6.342088381   -11.321001019   1   0   1 # H_
    215      5   5 -0.031500    -0.727070611     7.670543189    -8.287387703   1   0   1 # C_R
    216      5   1  0.062700    -2.177046753     7.180621865    -7.015998953   1   0   1 # H_
    217      5   5  0.075000     0.038946404     7.675661936    -9.560363876   1   0   1 # C_R
    218      5   1  0.065100     0.251756159     6.803779167   -11.500838548   1   0   1 # H_
    219      5   1  0.065100    -0.386101903     7.751004442    -7.373836093   1   0   1 # H_
    220      5   4 -0.343500     1.274299086     7.586430570    -9.516011661   1   0   1 # O_R
    221      5   2  0.079000     1.549787120     8.488353964    -8.524522188   1   0   1 # C_3
    222      5   2  0.075000     2.812894915     8.779871329    -8.609936677   1   0   1 # C_3
    223      5   1  0.060000     1.536399073     7.937659362    -7.705965420   1   0   1 # H_
    224      5   1  0.060000     0.859362997     9.160526712    -7.911700239   1   0   1 # H_
    225      5   3 -0.391000     2.933223466     9.711124440    -7.611359059   1   0   1 # O_3
    226      5   2 -0.036600     3.249241366     9.188531663    -9.865169682   1   0   1 # C_3
    227      5   1  0.062200     2.186339386     9.432924292    -9.211977818   1   0   1 # H_
    228      5   1  0.025800     4.084455039     9.607459413   -10.222027503   1   0   1 # H_
    229      5   1  0.025800     2.991425827     8.585231431   -10.783305262   1   0   1 # H_
    230      5   1  0.036600    -2.354510791     5.387470255    -8.218896402   1   0   1 # H_
    231      5   1  0.036600    -2.061626449     5.285373786    -9.110926759   1   0   1 # H_
    232      5   1  0.025800    -9.708103165     2.266397698    -8.420943403   1   0   1 # H_
    233      5   1  0.025800     4.159275804     9.410045715    -9.347954410   1   0   1 # H_
    234      5   6  0.210600     2.295581082     9.412105002    -6.957780864   1   0   1 # H___A
    235      5   6  0.210600    -8.257142498     2.341479186   -10.556156891   1   0   1 # H___A
    236      6   1  0.025800     2.072485929    10.521239616    -3.472063436   0   0   1 # H_
    237      6   2 -0.036600     1.955608717     9.527557019    -3.320047022   0   0   1 # C_3
    238      6   3 -0.391000    -0.233012840     8.965116561    -2.422654726   0   0   1 # O_3
    239      6   2  0.075000     0.644954602     8.964661581    -3.505092708   0   0   1 # C_3
    240      6   1  0.025800     2.604769356     9.493880970    -4.215483318   0   0   1 # H_
    241      6   2  0.079000     0.433590446     7.761661580    -3.999097036   0   0   1 # C_3
    242      6   1  0.062200     1.363654523     8.285525784    -3.087414692   0   0   1 # H_
    243      6   4 -0.343500     1.200564034     7.769811941    -5.142709050   0   0   1 # O_R
    244      6   1  0.060000    -0.549026013     7.843159602    -4.340759256   0   0   1 # H_
    245      6   1  0.060000     0.001178381     6.938214223    -3.359425033   0   0   1 # H_
    246      6   5  0.075000     0.995407666     6.682807863    -5.615036943   0   0   1 # C_R
    247      6   5 -0.031500    -0.168063807     5.818558293    -5.351389910   0   0   1 # C_R
    248      6   5 -0.031500     2.190709428     6.442063712    -6.190601311   0   0   1 # C_R
    249      6   5 -0.056100    -0.308144577     4.606689859    -5.429088246   0   0   1 # C_R
    250      6   1  0.065100    -0.883143301     5.942873970    -4.755739052   0   0   1 # H_
    251      6   5 -0.056100     1.938386321     5.286325071    -6.597470686   0   0   1 # C_R
    252      6   1  0.065100     3.047851206     6.945621477    -6.410133212   0   0   1 # H_
    253      6   5 -0.043400     0.855987670     4.368628256    -6.171932903   0   0   1 # C_R
    254      6   1  0.062700    -1.266766833     4.281979646    -5.669857072   0   0   1 # H_
    255      6   1  0.062700     2.495736936     5.077705677    -7.305919289   0   0   1 # H_
    256      6   2 -0.002600     0.516392179     3.312439882    -6.586743842   0   0   1 # C_3
    257      6   5 -0.043400     0.266286985     2.540398320    -7.386296281   0   0   1 # C_R
    258      6   5 -0.056100    -1.103917628     2.108916030    -7.339384481   0   0   1 # C_R
    259      6   5 -0.056100     1.289668782     2.198449528    -8.251965848   0   0   1 # C_R
    260      6   5 -0.031500    -1.378137764     1.040077516    -7.963471642   0   0   1 # C_R
    261      6   1  0.062700    -1.814921041     2.624847804    -6.923771181   0   0   1 # H_
    262      6   5 -0.031500     0.743029702     1.643734252    -9.111800975   0   0   1 # C_R
    263      6   1  0.062700     2.034752192     2.811229592    -8.531202781   0   0   1 # H_
    264      6   5  0.075000    -0.448142685     0.861786540    -8.915916288   0   0   1 # C_R
    265      6   1  0.065100    -2.136792834     0.489730187    -7.661928941   0   0   1 # H_
    266      6   1  0.065100     1.481896963     1.609994430    -9.770081227   0   0   1 # H_
    267      6   4 -0.343500    -0.403061222    -0.337903045    -9.101647332   0   0   1 # O_R
    268      6   2  0.079000     0.373657356    -0.428428319   -10.245957423   0   0   1 # C_3
    269      6   2  0.075000     0.219865701    -1.617600919   -10.705908378   0   0   1 # C_3
    270      6   1  0.060000     1.327120532    -0.468263181    -9.816858546   0   0   1 # H_
    271      6   1  0.060000     0.856747874     0.332148222   -10.923981766   0   0   1 # H_
    272      6   3 -0.391000     1.099717133    -1.638317402   -11.783000116   0   0   1 # O_3
    273      6   2 -0.036600    -1.060764297    -2.171999044   -10.860364208   0   0   1 # C_3
    274      6   1  0.062200    -0.523814525    -0.932356926   -11.137183280   0   0   1 # H_
    275      6   1  0.025800    -1.168714380    -3.150204519   -10.693610414   0   0   1 # H_
    276      6   1  0.025800    -1.576197472    -2.142415037    -9.893038181   0   0   1 # H_
    277      6   1  0.036600     0.605134541     3.918028517    -7.372599030   0   0   1 # H_
    278      6   1  0.036600    -0.062552961     3.905905577    -7.381020442   0   0   1 # H_
    279      6   1  0.025800     1.555059415    10.246610736    -2.631810211   0   0   1 # H_
    280      6   1  0.025800    -0.661534252    -2.886973274   -11.529278239   0   0   1 # H_
    281      6   6  0.210600     1.778105874    -0.994688605   -11.502971408   0   0   1 # H___A
    282      6   6  0.210600    -0.913102452     8.319165023    -2.688593217   0   0   1 # H___A