ITEM: TIMESTEP
0
ITEM: NUMBER OF ATOMS
210
ITEM: BOX BOUNDS pp pp pp
-12.536350000 12.536350000
-12.536350000 12.536350000
-12.536350000 12.536350000
ITEM: ATOMS id mol type x y z
1 1 1     22.267897050     16.613862651      9.945399988
2 1 2     20.717926805     17.459554292     11.609807947
3 1 3     20.173056216     19.550794846     12.430576760
4 1 4     20.018657593     20.527609234     14.289750859
5 1 3     19.210920976     22.330879346     15.299698319
6 1 2     18.181850825     24.040892847     15.983717181
7 1 1     16.449330282     24.650146827     17.897320357
8 2 1      8.705689747     26.181115289     17.508350843
9 2 2     10.587184896     25.282502914     17.771054909
10 2 3     12.026838296     23.528809620     17.138168456
11 2 4     12.663834138     21.507600567     17.023415776
12 2 3     14.089057228     19.885318316     16.566915894
13 2 2     15.315366954     17.849252132     16.182039214
14 2 1     17.216407813     16.978381631     16.534499654
15 3 1      8.408405308     18.973100502     19.268960260
16 3 2     10.184499066     18.484563851     18.413909200
17 3 3     11.511141972     16.753854394     17.624138461
18 3 4     12.729579023     15.185991903     16.765491882
19 3 3     13.680255251     13.700765322     15.465021800
20 3 2     15.119005879     11.888424063     14.752694650
21 3 1     16.978885291     11.596389637     13.803316544
22 4 1     13.010504407     17.956740527      8.287894174
23 4 2     11.504363203     16.428476304      7.979907517
24 4 3     10.009412680     15.489856585      9.725234838
25 4 4      8.146046554     14.391402629      9.659458464
26 4 3      6.613535959     13.292722537     10.785523300
27 4 2      4.945348225     12.216442666     12.003405591
28 4 1      3.685764445     10.458407557     11.976634401
29 5 1     16.180695865      3.572948219     15.773279883
30 5 2     17.629791557      5.811798752     15.800271726
31 5 3     20.232001765      5.337705976     16.614739400
32 5 4     22.685162599      5.534272437     16.314564668
33 5 3     23.963064604      7.206438054     15.708959560
34 5 2     26.346999086      7.586430570     15.556688339
35 5 1     27.677971461      9.064893938     16.277090989
36 6 1      0.812378188      8.806072063     21.705205395
37 6 2      1.200564034      7.769811941     19.929990950
38 6 3      0.889796071      5.545325382     19.122983138
39 6 4      0.352991253      3.712124659     17.959245562
40 6 3     -0.106627733      1.792916420     16.887118036
41 6 2     -0.403061222     -0.337903045     15.971052668
42 6 1      0.060380868     -1.463554455     14.246140731
43 7 1     14.105444836     13.220299800      2.458448254
44 7 2     15.711119259     13.794419525      3.751155552
45 7 3     16.712566462     13.225873941      5.829468039
46 7 4     17.426207827     12.747693585      7.838154474
47 7 3     19.021762940     12.056451693      9.152029207
48 7 2     19.764380935     11.565351427     11.342827596
49 7 1     21.279357043     11.982430448     12.614854901
50 8 1     13.233363577     16.123715447     11.410345017
51 8 2     14.172300307     18.014765895     11.451946635
52 8 3     13.589813770     20.284796603     11.753530060
53 8 4     12.876197763     22.391559917     11.858087796
54 8 3     12.969873106     24.470074883     12.752524589
55 8 2     12.500975512     26.832903957     12.795381260
56 8 1     13.695483360     28.548843234     13.109672443
57 9 1     16.532964731     -2.435547792     22.475692855
58 9 2     15.500807425     -0.739476301     23.290757184
59 9 3     13.452338532      0.306386624     23.563022300
60 9 4     11.401520889      1.101814282     23.360571516
61 9 3      9.650070682      1.897174825     24.559678943
62 9 2      7.494302444      2.889314720     24.802143016
63 9 1      6.435351987      4.602433011     25.382361858
64 10 1     11.189926519     12.078463774     18.235941282
65 10 2     12.623221894     12.169143064     19.828762314
66 10 3     14.596149619     13.322759078     20.332907743
67 10 4     16.498552999     14.391397751     20.475654108
68 10 3     17.780277961     15.842428699     21.522013316
69 10 2     19.892340262     17.018206851     21.856162928
70 10 1     21.274129108     17.347081202     23.406043084
71 11 1     -3.994447258     20.457471806      1.241897166
72 11 2     -2.223691962     21.534731512      0.818466235
73 11 3     -0.124861154     22.161102931      1.638438326
74 11 4      1.534020674     23.237598206      2.396892267
75 11 3      3.675678414     23.633027651      3.134850706
76 11 2      5.593083889     24.748485976      3.825822826
77 11 1      7.547783885     25.328636771      3.249395276
78 12 1     19.342448112     -3.585340934      4.773924654
79 12 2     19.517442146     -1.491405907      4.381388279
80 12 3     17.713244200     -0.066853332      3.537028183
81 12 4     17.492612388      1.998368198      4.488086583
82 12 3     15.887029509      3.695229816      3.951305073
83 12 2     14.510644686      5.551533444      3.804039550
84 12 1     14.249896400      7.414862676      2.903421357
85 13 1      4.627510736     15.774705639     13.190110309
86 13 2      6.016471485     15.156447211     14.688219606
87 13 3      5.876624988     13.765970490     16.716527418
88 13 4      6.835635723     11.916467001     17.830292763
89 13 3      6.042880755     11.201368900     20.048248687
90 13 2      6.267739347      9.656272850     21.782027449
91 13 1      7.778723172      8.933482185     23.181355241
92 14 1     25.290955911     11.498844279      6.814217671
93 14 2     25.359971301     11.384860997      9.016415281
94 14 3     24.888185509     12.283994372     10.972577682
95 14 4     25.156170887     13.644119720     12.881404915
96 14 3     24.267342343     13.016899110     14.968834581
97 14 2     24.554015185     14.983558341     16.664464109
98 14 1     23.838096312     14.426689142     19.028149006
99 15 1     -3.674990980      2.370540507      3.011496717
100 15 2     -1.921621841      3.114593014      3.941314202
101 15 3     -0.081567750      4.596893821      3.498250603
102 15 4      1.607504259      5.853957126      2.961598801
103 15 3      2.925542098      7.562004350      3.354461328
104 15 2      4.846080085      8.975684593      2.832006629
105 15 1      6.572965444      9.706164851      3.790315077
106 16 1      6.069628595      8.021171906     14.700799376
107 16 2      5.306617205      7.556076944     12.855983249
108 16 3      3.961358089      6.069425377     11.594327304
109 16 4      2.873235054      4.032939700     11.003753062
110 16 3      1.322768485      3.809259066      9.280447501
111 16 2     -0.618955769      3.020048641      7.941932344
112 16 1     -0.838429959      1.255495821      6.436288305
113 17 1      1.592254379     19.671620746     -5.748578103
114 17 2      0.886021471     20.152162228     -3.830933851
115 17 3      0.577306394     19.205036480     -1.687585989
116 17 4      0.052002589     18.208687820      0.162463678
117 17 3      0.313406841     17.943286744      2.251749529
118 17 2      0.441596624     17.625385062      4.622561813
119 17 1     -0.783185976     17.392657797      6.479015403
120 18 1     16.523258123     23.381803969     10.788629134
121 18 2     17.104633706     21.832008709      9.515562464
122 18 3     16.695946333     20.842859705      7.377968565
123 18 4     15.702591680     19.567278614      5.737981036
124 18 3     15.952567720     19.099207414      3.588410810
125 18 2     15.216308174     17.721803522      1.713066021
126 18 1     16.076345951     16.527016588      0.204326668
127 19 1     15.625844845     10.114306576      2.100418221
128 19 2     16.893073602      8.879682582      3.276331043
129 19 3     17.408327446      8.110685448      5.437149208
130 19 4     17.628903342      7.893367423      7.705242891
131 19 3     18.207153899      5.949795797      8.912939330
132 19 2     18.587439079      4.964292604     10.744024912
133 19 1     19.926303204      4.855407826     12.281357576
134 20 1     21.507475117     20.882665387      7.499062184
135 20 2     20.386930611     22.493184510      8.358213847
136 20 3     20.261258593     23.422147314     10.456462571
137 20 4     20.171002329     24.458379992     12.293539250
138 20 3     19.970249869     25.421894240     14.127897207
139 20 2     19.839224082     26.151192890     16.174730032
140 20 1     18.979876791     27.663264849     17.444042496
141 21 1     13.054236420      5.414426150     10.027468520
142 21 2     10.976873832      5.404667245     10.583112943
143 21 3      9.609622871      4.876736639     12.545193744
144 21 4      8.678411193      3.754093814     14.419917586
145 21 3      7.283205840      4.344478069     16.010224386
146 21 2      5.899922912      4.110248927     17.954364450
147 21 1      3.947952472      3.620885569     18.480728656
148 22 1     26.353479014      4.758217244     15.508118633
149 22 2     25.367193189      4.426220406     13.646486107
150 22 3     23.736259216      2.839795217     12.885229089
151 22 4     22.480939979      3.378753967     11.034379831
152 22 3     20.661980542      2.159480377     10.121238875
153 22 2     19.004545020      1.391521146      8.862926817
154 22 1     18.366120245      0.856359031      7.056312172
155 23 1     11.770938629     20.657309111      7.326441644
156 23 2     10.322561854     21.783310124      8.337248371
157 23 3      8.095839999     22.545791698      8.070710297
158 23 4      6.108212877     23.332647790      7.624106696
159 23 3      3.992216638     23.493214694      8.160592953
160 23 2      1.867408133     24.465867919      7.529597436
161 23 1      0.380850955     25.288898175      8.940143841
162 24 1     -0.526186652     24.068450417     22.449948001
163 24 2      1.581619212     23.995160594     22.879000009
164 24 3      3.368083169     22.290576300     22.888562704
165 24 4      5.401046400     21.872296610     22.546065950
166 24 3      6.932087727     20.264784121     22.555148792
167 24 2      9.015867558     18.998904815     22.184726238
168 24 1     11.000219972     18.759968561     22.824388079
169 25 1     10.833751893     15.504638057      3.687074226
170 25 2      8.715814535     16.318420524      3.486712074
171 25 3      6.523426439     15.681778721      3.702262940
172 25 4      4.728359172     14.530356239      4.160736762
173 25 3      2.757469564     14.521842189      5.387512544
174 25 2      0.377280501     13.775505976      5.510698924
175 25 1     -1.727988086     14.555248735      5.254049025
176 26 1      8.849213313     13.563360066      6.672586103
177 26 2     10.319364998     12.198481569      6.374032277
178 26 3     11.995946513     11.397028557      7.734848571
179 26 4     12.842048087     10.105043432      9.312037964
180 26 3     14.584311922      9.562179071     10.306673433
181 26 2     15.606274214      7.923777786     11.816824483
182 26 1     17.711930637      7.402412012     12.071835931
183 27 1      3.524442083      5.327826666     22.710885059
184 27 2      4.231094685      3.335662570     22.053043853
185 27 3      6.247157345      2.256116868     21.165951383
186 27 4      7.810423857      0.956930437     20.677390194
187 27 3      9.030246088     -0.599448252     20.607177054
188 27 2     10.995795376     -1.852676909     20.188971549
189 27 1     11.626412409     -3.521558307     19.210768372
190 28 1      7.789299123      9.193599802     18.801973599
191 28 2      9.618230533      8.649544961     18.165188669
192 28 3     11.520507680      8.384652925     18.395343682
193 28 4     13.692963749      9.579680474     18.612715269
194 28 3     15.709638065      8.579841321     18.903003252
195 28 2     18.115586841      9.028542734     19.075831729
196 28 1     19.924566280      8.303164256     18.213338603
197 29 1     20.930404001     -2.357546172     18.614582903
198 29 2     21.699099910     -0.435429007     19.254583406
199 29 3     21.172310144      1.492853200     20.403704784
200 29 4     20.776131081      3.589571462     21.381638834
201 29 3     19.868379703      5.624028608     21.135122093
202 29 2     19.235416698      7.914727147     21.635472479
203 29 1     19.968280526      9.664757964     22.545186940
204 30 1     21.537698903     14.863220556     17.358192018
205 30 2     21.360233330     15.798168295     15.188803179
206 30 3     23.003511360     17.012354460     13.710008258
207 30 4     25.281648668     17.995585006     12.761749627
208 30 3     24.192581615     19.400448402     10.670044534
209 30 2     24.386627048     20.738154812      9.088311917
210 30 1     24.889848090     20.994180380      6.918610201
