ITEM: TIMESTEP
0
ITEM: NUMBER OF ATOMS
1410
ITEM: BOX BOUNDS pp pp pp
-12.536350000 12.536350000
-12.536350000 12.536350000
-12.536350000 12.536350000
ITEM: ATOMS id mol type x y z
1 1 1 22.478129002000003 15.337712011 8.403323513 
2 1 2 22.354812328 15.524006887 9.369441096 
3 1 3 22.684036109 16.381259367000002 10.510403788 
4 1 2 21.771080604 16.784845987 9.718591299 
5 1 1 21.363500820000002 15.320950244 8.905020243 
6 1 2 21.590094738 17.849633971000003 10.62576009 
7 1 1 21.646250107 16.098635617 10.573257861 
8 1 4 20.717926805 17.459554292 11.609807947 
9 1 1 22.435154676 18.191973475 11.165555538 
10 1 1 21.771660918000002 18.822996286000002 10.346678488 
11 1 5 20.383726458 18.43229635 12.162573663 
12 1 5 21.307759195000003 19.473028664 12.505989864 
13 1 5 19.111867291000003 18.53986936 11.840133014 
14 1 5 21.391819884 20.695324297 12.847755299000001 
15 1 1 22.151437207 19.506223631 12.363464035 
16 1 5 18.815123120000003 19.730019901000002 12.324479449 
17 1 1 18.549315464000003 17.872200961 11.321042834 
18 1 5 19.926672094 20.703357607 12.762193085000002 
19 1 1 22.219038848 20.979018164000003 13.594714923000002 
20 1 1 17.873802596 19.576609525000002 12.583421433000002 
21 1 2 20.063433776 21.06995617 13.925993772000002 
22 1 5 19.553376454000002 21.753975602 14.528253150000001 
23 1 5 20.655617099 22.380674323 15.271104396000002 
24 1 5 18.153572323000002 21.531122805000003 14.479651697000001 
25 1 5 20.080049462 23.134040105 16.157072843 
26 1 1 21.641524403000002 22.330178984 15.111271822 
27 1 5 18.02855405 22.080014423 15.607937294000001 
28 1 1 17.466825903 20.924656543 13.874062523000001 
29 1 5 18.762334794 22.983373143 16.419822781 
30 1 1 20.554288807 23.907764742 16.457259017000002 
31 1 1 17.21306646 22.282992792 15.090547667000001 
32 1 4 18.181850825 24.040892847000002 15.983717181000001 
33 1 2 16.786898254 24.160981426 16.569195142 
34 1 2 16.175809475 24.443063664 18.250951871 
35 1 1 16.411511594 23.14888806 16.623401672 
36 1 1 16.210732845000003 23.854854542 15.651121237000002 
37 1 3 15.439392991000002 25.095027349000002 17.231971607000002 
38 1 2 17.253815405 24.929574816000002 19.204560137 
39 1 1 15.481631361000002 25.223281718000003 19.016330943 
40 1 1 17.867226438000003 24.916320818000003 18.350265087 
41 1 1 17.381383578 25.127535468 20.508066496 
42 1 1 19.763460864000002 20.134148841000002 14.251383983000002 
43 1 1 20.229078139000002 20.37872269 14.691874822 
44 1 1 23.448458469000002 15.439658864000002 9.009549049 
45 1 1 17.206368830000002 25.779766929 18.641043281 
46 1 6 14.727862328 24.472320309 16.823616457 
47 1 6 23.403689775 17.000816455 10.771818905 
48 2 1 8.561868882 27.77371868 18.910178105 
49 2 2 9.158358385 27.434552811 18.176371394 
50 2 3 7.472950435 26.104912709 16.716769384000003 
51 2 2 8.75672687 26.402269848 17.185040166 
52 2 1 9.831979124 27.185344557 19.035357454 
53 2 2 9.508378844 25.335273932 16.882434749 
54 2 1 8.640988979 25.851486092000002 18.046155524 
55 2 4 10.587184896 25.282502914000002 17.771054909 
56 2 1 8.963823255 24.381718195 16.980087271000002 
57 2 1 9.228171237 24.769518234 16.020282435 
58 2 5 11.432820959 24.641782978000002 17.212948381 
59 2 5 11.044428447 23.514661376 16.381995222 
60 2 5 12.419763316 24.656807256 18.150296631 
61 2 5 11.711481235 22.681675178000003 15.764362724000001 
62 2 1 10.167585888 22.999543369 16.501541609 
63 2 5 13.280222739000001 23.738832991000002 17.741033423 
64 2 1 12.349280055 24.940396493 19.161945595000002 
65 2 5 12.960997118000002 22.893927501 16.524826779 
66 2 1 11.099297955 21.784050521 15.370106906000002 
67 2 1 13.802505245 23.436418537 18.572627294 
68 2 2 12.917904496 21.650542312000002 16.518236418 
69 2 5 13.596395411000001 20.862184319 16.678673067000002 
70 2 5 13.032782766 19.864705466 15.683862895 
71 2 5 14.650397680000001 20.999878638000002 17.621047817 
72 2 5 13.733146708000001 18.827539891 15.430886979 
73 2 1 12.086689652 19.852736345 15.268598999000002 
74 2 5 15.048496466000001 19.883712089 17.367362794 
75 2 1 14.861274646000002 21.664578817000002 18.405673125 
76 2 5 14.787172596000001 18.89941848 16.282269488 
77 2 1 13.402432492 18.105339718000003 14.826190883 
78 2 1 15.691783863000001 19.893089393 18.104592893000003 
79 2 4 15.315366954000002 17.849252132 16.182039214 
80 2 2 16.480977699 17.976833743 16.89305952 
81 2 2 17.105466761000002 16.816981817 16.762626249 
82 2 1 16.227983478 17.968216365 17.905944537 
83 2 1 17.064030992 18.896160949000002 17.155948328 
84 2 3 18.291944201 17.047716247 17.413223431000002 
85 2 2 17.250203237 16.141984465 15.513114288 
86 2 1 17.320160427 17.439436544000003 15.920007632 
87 2 1 17.180722991000003 15.171506989000001 15.616829947000001 
88 2 1 16.371751087 16.067568996 14.814982238 
89 2 1 12.719076283000001 21.7177377 17.406854229 
90 2 1 12.354521636 21.154521689 17.14515668 
91 2 1 8.075588823 27.569142018 18.227524609 
92 2 1 18.045971145000003 15.507586817000002 15.830326647000001 
93 2 6 18.041273930000003 17.72820501 18.053433372 
94 2 6 7.563752379 25.184331103 16.411658182000004 
95 3 1 8.416784284 20.710172305 20.348324065 
96 3 2 8.790052906 20.211549889 19.586337149000002 
97 3 3 7.006457999 18.622492219 19.029559062 
98 3 2 8.318161591 18.988543148 19.117757029 
99 3 1 9.720344233 20.260782528 20.189464551 
100 3 2 9.028745387 17.986337307 18.846304323000002 
101 3 1 8.72839256 18.606457822000003 20.008671810000003 
102 3 4 10.184499066 18.484563851 18.4139092 
103 3 1 8.644887257 17.825470184 17.877784706 
104 3 1 8.642145722 16.964565255000004 19.033028788000003 
105 3 5 10.907097713 17.551490979 18.362009925000002 
106 3 5 10.366556495 16.325705186 17.734706142 
107 3 5 12.15885301 18.010528185000002 18.334349147 
108 3 5 10.711381374 15.575549881 16.861034576 
109 3 1 9.457664621 16.011358431 17.615837158 
110 3 5 12.813807243000001 17.185970898 17.648628003 
111 3 1 12.584451817000001 18.801173012 18.583562799 
112 3 5 12.041902124 16.079902558 16.949271655 
113 3 1 10.271720814 14.735525215000001 16.423072126 
114 3 1 13.797984512000001 17.261339591000002 17.728913078 
115 3 2 12.679123175 15.595105625 16.218740192 
116 3 5 13.067983227000001 14.656223629000001 15.682849917 
117 3 5 12.343185907 13.435364613 15.255689303 
118 3 5 14.444059617 15.088362863 15.812472306000002 
119 3 5 13.074262994000001 12.422709971 14.861457790000001 
120 3 1 11.399728107 13.243378083000001 15.377416506000001 
121 3 5 14.84944366 13.95825813 15.629723574000002 
122 3 1 14.880368969000001 15.770314343 16.528642584000004 
123 3 5 14.355545094000002 12.766038244 15.025950250000001 
124 3 1 12.705107711000002 11.555917883 14.555225272000001 
125 3 1 15.682867228000001 14.111085457000001 15.920790496 
126 3 4 15.119005879000001 11.888424063 14.75269465 
127 3 2 16.291126273000003 12.514651611 14.309073412000002 
128 3 2 17.083630239 11.529141305 13.976523474 
129 3 1 16.756248226 12.676518322000002 15.231958856 
130 3 1 16.592649313000003 13.579138982000002 14.175530028 
131 3 3 18.268469112000002 12.133817957 13.677085779 
132 3 2 16.605204964000002 10.516727786 13.169608664000002 
133 3 1 16.497312915000002 11.901259171 13.122326961 
134 3 1 16.855111155000003 9.619402745 13.050105126000002 
135 3 1 15.946153133000001 10.001966723 13.881839959 
136 3 1 12.898262385 15.192429019 17.206276538 
137 3 1 12.611351508 14.770441064000002 16.871458917 
138 3 1 8.107210962 20.841722774 19.129430539 
139 3 1 17.616189804 10.241035029 12.924721611 
140 3 6 18.255643068 12.846626381000002 14.317708113000002 
141 3 6 7.089275489 17.686012096 18.791900843 
142 4 1 14.50655914 17.764722522 6.782818388 
143 4 2 14.141711908000001 17.468913169 7.676989553 
144 4 3 13.071879515000001 19.046306326 8.946241143 
145 4 2 12.9009741 18.001509591 8.135973094 
146 4 1 14.024464302000002 16.528348657000002 7.122926962 
147 4 2 11.854523499 17.470280855000002 8.782473615 
148 4 1 13.297833943 17.368835674000003 8.85118036 
149 4 4 11.504363203 16.428476304 7.979907517 
150 4 1 11.109161387 18.156621062 8.528371159 
151 4 1 11.497376492 17.84857231 9.754879525 
152 4 5 10.543748231 15.942365786000002 8.626455923 
153 4 5 9.539814434 16.665499725000004 9.399175029 
154 4 5 11.092155931 14.742381353 8.897672993 
155 4 5 9.013145865 16.256674663000002 10.522153953 
156 4 1 9.542429189 17.592057896 9.688412447 
157 4 5 10.515702649 14.323938060000001 10.07309541 
158 4 1 11.721005683 14.256208602000001 8.218619425 
159 4 5 9.423215828 14.96794949 10.647283824 
160 4 1 8.155993291 16.717613836 10.846331962 
161 4 1 10.5469157 13.433876437 10.333147412 
162 4 2 8.360087226 14.360493040000001 10.186332148 
163 4 5 7.69492528 13.749486271 10.942065604 
164 4 5 6.638404862 14.613616067 11.393656348 
165 4 5 7.804381796 12.409834349 10.501793512 
166 4 5 5.481668903 14.031471853000001 11.178209081 
167 4 1 6.593620462 15.62551823 11.483554626 
168 4 5 6.591859262 12.119661651 10.336331253 
169 4 1 8.496002022 11.924668825 9.864135561 
170 4 5 5.485861816 12.744399361000001 10.98408699 
171 4 1 4.68018264 14.491693522 11.159057296 
172 4 1 6.668452547 11.21687524 10.012342728 
173 4 4 4.945348225 12.216442666 12.003405591 
174 4 2 4.664259753 11.008051552 11.384588208 
175 4 2 3.831744091 10.329676558 12.097453679 
176 4 1 5.509503433 10.475974802 11.664769071 
177 4 1 4.929097008 10.55720983 10.402069376 
178 4 3 3.616266554 9.139932089 11.424829482 
179 4 2 2.851647701 10.91116859 12.897964152000002 
180 4 1 3.332546496 10.990809035 11.408516795 
181 4 1 2.458595691 10.53719913 13.668811444000001 
182 4 1 2.65577097 12.005134146 12.997840413 
183 4 1 8.382776047 14.019316555000001 9.299107197 
184 4 1 7.695276388 14.794398292 9.492936046 
185 4 1 14.533842997 18.459321059 7.503415572 
186 4 1 2.170800384 10.076632566 12.677713067000001 
187 4 6 4.523176812 9.010694834 11.11842272 
188 4 6 12.177221199 19.410714569 9.081566548 
189 5 1 14.928680852000001 3.072363836 17.303314137 
190 5 2 15.861460223000002 3.168169523 16.916611338000003 
191 5 3 15.881017178 2.717639139 14.587040073 
192 5 2 15.891495093000001 3.839563936 15.596076771000002 
193 5 1 16.063611158 3.665332351 17.884589795 
194 5 2 16.738772669 4.841551389 14.866110556 
195 5 1 15.531161139000002 4.943670163 15.566196212000001 
196 5 4 17.629791557 5.811798752 15.800271726000002 
197 5 1 17.540991984 4.275783435 15.245302005000001 
198 5 1 17.370309884 4.170479756 14.372538122000002 
199 5 5 18.915073966 5.778651095 16.263782615 
200 5 5 19.777465036000002 4.969369923 15.603839736000001 
201 5 5 19.376728015 5.648622459 17.58762853 
202 5 5 20.899868393000002 5.253848067 15.301225987 
203 5 1 19.998168472000003 3.974526489 15.486491588000002 
204 5 5 20.714087996 5.627446691 17.8200021 
205 5 1 18.854364616 5.632217194 18.455902231000003 
206 5 5 21.360105051 5.43992566 16.601597299 
207 5 1 21.296537354 4.986304805 14.481636909 
208 5 1 21.127618753 6.066147379 18.545287009 
209 5 2 22.326225038 5.929973269 16.128117164000003 
210 5 5 22.817709352 7.010959178 15.837693771000001 
211 5 5 23.424501582 6.922368379 14.489299194 
212 5 5 23.158830316 7.495305752 17.079868303 
213 5 5 24.717164805 7.212048255 14.305960525000001 
214 5 1 23.148456693 6.342088381 13.751698981 
215 5 5 24.345629389000003 7.670543189 16.785312297 
216 5 1 22.895653247000002 7.180621865 18.056701047 
217 5 5 25.111646404000002 7.675661936 15.512336124 
218 5 1 25.324456159 6.803779167 13.571861452 
219 5 1 24.686598097 7.751004442 17.698863907 
220 5 4 26.346999086 7.58643057 15.556688339 
221 5 2 26.622487120000002 8.488353964 16.548177812 
222 5 2 27.885594915000002 8.779871329 16.462763323 
223 5 1 26.609099073 7.937659362 17.36673458 
224 5 1 25.932062997000003 9.160526712 17.160999761 
225 5 3 28.005923466000002 9.71112444 17.461340941000003 
226 5 2 28.321941366 9.188531663 15.207530318000002 
227 5 1 27.259039386 9.432924292 15.860722182000002 
228 5 1 29.157155039000003 9.607459413 14.850672497000001 
229 5 1 28.064125827 8.585231431 14.289394738 
230 5 1 22.718189209000002 5.387470255 16.853803598 
231 5 1 23.011073551000003 5.285373786 15.961773241000001 
232 5 1 15.364596835 2.266397698 16.651756597000002 
233 5 1 29.231975804 9.410045715 15.724745590000001 
234 5 6 27.368281082000003 9.412105002 18.114919136 
235 5 6 16.815557502 2.341479186 14.516543109 
236 6 1 2.072485929 10.521239616 21.600636564000002 
237 6 2 1.955608717 9.527557019 21.752652978 
238 6 3 -0.23301284 8.965116561 22.650045274 
239 6 2 0.644954602 8.964661581 21.567607292 
240 6 1 2.604769356 9.49388097 20.857216682 
241 6 2 0.433590446 7.76166158 21.073602964000003 
242 6 1 1.363654523 8.285525784 21.985285308 
243 6 4 1.200564034 7.769811941 19.92999095 
244 6 1 -0.549026013 7.843159602 20.731940744 
245 6 1 0.001178381 6.938214223 21.713274967 
246 6 5 0.995407666 6.682807863 19.457663057 
247 6 5 -0.168063807 5.818558293 19.721310090000003 
248 6 5 2.190709428 6.442063712 18.882098689000003 
249 6 5 -0.308144577 4.606689859 19.643611754000002 
250 6 1 -0.883143301 5.94287397 20.316960948000002 
251 6 5 1.938386321 5.286325071 18.475229314 
252 6 1 3.047851206 6.945621477 18.662566788 
253 6 5 0.85598767 4.368628256 18.900767097 
254 6 1 -1.266766833 4.281979646 19.402842928000002 
255 6 1 2.495736936 5.077705677 17.766780711000003 
256 6 2 0.516392179 3.312439882 18.485956158 
257 6 5 0.266286985 2.54039832 17.686403719 
258 6 5 -1.103917628 2.10891603 17.733315519 
259 6 5 1.289668782 2.198449528 16.820734152 
260 6 5 -1.378137764 1.040077516 17.109228358000003 
261 6 1 -1.814921041 2.624847804 18.148928819 
262 6 5 0.743029702 1.643734252 15.960899025000002 
263 6 1 2.034752192 2.811229592 16.541497219 
264 6 5 -0.448142685 0.86178654 16.156783712 
265 6 1 -2.136792834 0.489730187 17.410771059 
266 6 1 1.481896963 1.60999443 15.302618773 
267 6 4 -0.403061222 -0.337903045 15.971052668 
268 6 2 0.373657356 -0.428428319 14.826742577000001 
269 6 2 0.219865701 -1.617600919 14.366791622000001 
270 6 1 1.327120532 -0.468263181 15.255841454 
271 6 1 0.856747874 0.332148222 14.148718234 
272 6 3 1.099717133 -1.638317402 13.289699884000001 
273 6 2 -1.060764297 -2.171999044 14.212335792000001 
274 6 1 -0.523814525 -0.932356926 13.93551672 
275 6 1 -1.16871438 -3.150204519 14.379089586000001 
276 6 1 -1.576197472 -2.142415037 15.179661819000001 
277 6 1 0.605134541 3.918028517 17.70010097 
278 6 1 -0.062552961 3.905905577 17.691679558 
279 6 1 1.555059415 10.246610736 22.440889789 
280 6 1 -0.661534252 -2.886973274 13.543421761000001 
281 6 6 1.778105874 -0.994688605 13.569728592 
282 6 6 -0.913102452 8.319165023 22.384106783 
283 7 1 13.917256147000002 14.705904423000002 0.995396929 
284 7 2 13.792803931000002 14.340586012000001 1.919201172 
285 7 3 13.408828811000001 12.120479445 2.051574899 
286 7 2 14.335275822000002 13.087926608000002 2.268253426 
287 7 1 14.403512145 15.208623224000002 2.208248563 
288 7 2 14.77282274 12.852427366 3.503590218 
289 7 1 13.712029207 13.493614048000001 3.045967653 
290 7 4 15.711119259000002 13.794419525 3.751155552 
291 7 1 15.431404402000002 12.158518155 3.259834629 
292 7 1 14.342781716000001 11.996191414 4.097969952 
293 7 5 15.891552382 13.593861175 4.95182054 
294 7 5 16.102100603 12.218444176 5.470103739 
295 7 5 16.472423420000002 14.726443438 5.373798691 
296 7 5 16.959586223000002 11.632690485 6.145943588 
297 7 1 15.787308761 11.395875335 5.192058209 
298 7 5 17.352429846 14.359397676 6.263109881 
299 7 1 16.391159118 15.65921956 5.028273891 
300 7 5 17.489674312000002 12.878388032000002 6.523514299 
301 7 1 16.952412568 10.6510063 6.571432856 
302 7 1 17.727017385 15.143413230000002 6.774624699 
303 7 2 17.955869745 12.741752402000001 7.451532181 
304 7 5 18.612166003000002 12.282976705 8.150064873 
305 7 5 18.578288153000003 10.859292039 8.595991571 
306 7 5 19.110235883 13.590790944000002 8.553411788 
307 7 5 19.204862844 10.557550785 9.705079735 
308 7 1 18.022556977 10.135723706 8.235702214 
309 7 5 19.421707497 13.105456756 9.613584764 
310 7 1 18.86566862 14.652107054000002 8.365104388 
311 7 5 19.61760496 11.748939546 10.188833612 
312 7 1 19.234118352000003 9.640219749 10.116760706 
313 7 1 19.55042011 13.991459650000001 9.99575842 
314 7 4 19.764380935000002 11.565351427 11.342827596 
315 7 2 20.608513971 12.604004991000002 11.610772423 
316 7 2 20.857808092 11.928031781 12.798510225000001 
317 7 1 19.937263716 13.431083884000001 11.855197814 
318 7 1 21.027806513 13.592050905 11.020186034 
319 7 3 21.7339489 12.615531134000001 12.518951649 
320 7 2 21.700174206 10.800964127 13.128400758000002 
321 7 1 21.665974672 11.66297981 12.087148289 
322 7 1 21.872736324 10.408798295 14.047088054000001 
323 7 1 21.134018874000002 9.917362225 12.905541338 
324 7 1 17.106044489000002 13.078019970000001 7.947656431 
325 7 1 17.216709248 12.423308383 8.115274811 
326 7 1 13.247814093 13.986308068000001 1.06492047 
327 7 1 21.978758524 11.211652899 14.086732906000002 
328 7 6 21.555923678 13.634274875000001 12.704874421000001 
329 7 6 13.795364187 11.472719042 2.627972878 
330 8 1 14.668614580000002 14.767191683000002 10.589160217 
331 8 2 14.024688423 15.536796183000002 10.498357241 
332 8 3 12.183836398 15.447442179000001 12.066960441 
333 8 2 13.370181572000002 16.059812073000003 11.670112369 
334 8 1 14.947678698 16.064605541 10.168541688 
335 8 2 13.030586273 17.329322249 11.77811228 
336 8 1 12.98666283 16.423911396 10.739381262 
337 8 4 14.172300307 18.014765895 11.451946635 
338 8 1 12.956280661000001 17.472743973 12.800990693000001 
339 8 1 11.935609559 17.610268531000003 11.819026345 
340 8 5 13.728987197 19.142691055 11.352389273 
341 8 5 12.629557724000001 19.68873653 12.207659894 
342 8 5 14.761360165000001 19.761579737 10.733357227 
343 8 5 12.551244908000001 20.709335559000003 12.903335491000002 
344 8 1 11.93334544 19.271119571 12.724092893000002 
345 8 5 14.597035033000001 20.930060794 11.228181351 
346 8 1 15.480053871 19.479648945 10.067590365 
347 8 5 13.638300438000002 21.327601479000002 12.244151055 
348 8 1 11.664645673 21.067412301 13.420865427 
349 8 1 14.913607250000002 21.469780058 10.653677622 
350 8 2 13.205884945000001 22.326505140000002 12.420250811 
351 8 5 13.217762654000001 23.364924275 12.713650807 
352 8 5 12.066894474 23.790626945 13.443331843000001 
353 8 5 14.180901339000002 23.978460316 12.022894784 
354 8 5 11.944499689 25.052479731000002 13.713911280000001 
355 8 1 11.302128103 23.191248162 13.628540072000002 
356 8 5 13.897511656 25.101995174000002 12.11659645 
357 8 1 14.514602903000002 23.623484152 11.182484996 
358 8 5 12.878376923000001 25.695134482 12.974431551 
359 8 1 11.177487909 25.393840877000002 14.245808545000001 
360 8 1 14.518565414000001 25.508554717000003 11.483595557 
361 8 4 12.500975512 26.832903957000003 12.795381260000001 
362 8 2 13.730249723000002 27.431907943000002 12.558905396000002 
363 8 2 13.56233199 28.599537246 12.926106817 
364 8 1 13.716862637000002 27.38564068 11.52381679 
365 8 1 14.809679658 27.107280715 12.395164777 
366 8 3 14.719115668 29.201176174 12.496115139 
367 8 2 13.091903799 29.01640544 14.187663771 
368 8 1 13.927379265 28.11159538 13.738799551000001 
369 8 1 12.657468592 29.890259193000002 14.305225518 
370 8 1 12.123392481 28.508950087000002 14.439609402 
371 8 1 12.995200065 22.325006412 11.392148637 
372 8 1 12.42750828 22.5231682 11.76186394 
373 8 1 13.681894673 14.543570842000001 10.719033312 
374 8 1 13.417249698000001 30.050174847 13.984247524 
375 8 6 14.894683449 28.734347873 11.650742183 
376 8 6 11.780965679 16.105205267000002 12.664119341000001 
377 9 1 18.682632208 -2.096892709 22.633372673 
378 9 2 17.754527569 -1.852582345 22.323463475 
379 9 3 16.262242519 -3.767834696 22.084901603000002 
380 9 2 16.54314358 -2.548286375 22.698195955000003 
381 9 1 17.932232492 -1.000873906 23.002204772000002 
382 9 2 15.340427565 -1.965802124 22.695939745 
383 9 1 16.432225282 -1.935361418 21.807223571 
384 9 4 15.500807425000001 -0.739476301 23.290757184 
385 9 1 14.812842387000002 -2.492724045 23.417435198 
386 9 1 14.541526865000002 -2.393260678 22.061358375 
387 9 5 14.464719726 -0.141353698 22.949775195 
388 9 5 13.180693031 -0.84290285 23.032016174000002 
389 9 5 14.738166689000002 1.128810592 23.374539915 
390 9 5 12.343901272 -0.673272466 24.005267552 
391 9 1 12.879599195 -1.73862228 22.739682148 
392 9 5 13.653907954000001 1.656700867 23.899591913000002 
393 9 1 15.608039271 1.625539849 23.421948177 
394 9 5 12.585432333000002 0.716949453 24.17324769 
395 9 1 11.441365127 -1.309239506 24.070921335 
396 9 1 13.627560726 2.641256284 23.963232899 
397 9 2 11.458580817 0.942813627 23.942862174000002 
398 9 5 10.70073 1.440774889 24.580698499 
399 9 5 9.534073038 0.513065051 24.645271257 
400 9 5 10.977845595 2.814460886 24.625762902 
401 9 5 8.324302708 1.041010141 24.696048243 
402 9 1 9.442611938 -0.441684609 24.257658977000002 
403 9 5 9.790533682 3.136663087 24.646795323000003 
404 9 1 11.792717809 3.428199252 24.368446554000002 
405 9 5 8.55350084 2.377680516 24.880943681 
406 9 1 7.446791455 0.56635899 24.404206821000002 
407 9 1 9.93759976 4.095220044 24.490957177000002 
408 9 4 7.494302444 2.88931472 24.802143016000002 
409 9 2 7.638919381 4.215142947 25.05979507 
410 9 2 6.406623963 4.725351376 25.156942254 
411 9 1 8.046575268 4.683207822 24.226775748 
412 9 1 8.458068497 4.660576258 25.667603738 
413 9 3 6.675453516 5.960931133 25.691076109 
414 9 2 5.267098298 3.98349403 25.681088268 
415 9 1 6.573095046 4.198223125 26.054166388000002 
416 9 1 4.322390944 4.100445389 25.354269625 
417 9 1 5.072449914 3.046555131 25.114331302 
418 9 1 11.648017314 1.446875309 23.062093037 
419 9 1 11.097964535 0.915753911 23.076759337000002 
420 9 1 18.216219347 -2.815550219 22.142791766000002 
421 9 1 4.749575461 4.924751022 25.861104565 
422 9 6 7.57862157 6.128084885 25.33882737 
423 9 6 15.344592224000001 -3.921857198 22.36573427 
424 10 1 9.984095234 11.200255725 18.69883171 
425 10 2 10.881458083 10.929368668 18.490404094000002 
426 10 3 10.457452087 12.704465083 17.252919059 
427 10 2 11.131941791 12.120348358 18.239700505000002 
428 10 1 10.965592559 10.817537866 19.574188 
429 10 2 12.144040786 12.686785037000002 18.662913416000002 
430 10 1 11.937535841 11.501778898 17.803179446 
431 10 4 12.623221894 12.169143064 19.828762314000002 
432 10 1 11.793949969 13.608458203000001 18.953798995 
433 10 1 12.615224011 13.191540239000002 17.862476084 
434 10 5 13.799695001000002 12.502939366 19.783715462 
435 10 5 14.145209597000001 13.851801578000002 19.319091119 
436 10 5 14.354377507 11.86098104 20.829157700000003 
437 10 5 14.645879976000002 14.858826891000001 19.829991066 
438 10 1 13.690002345000002 14.435104798000001 18.751093064000003 
439 10 5 15.230566438 12.650012755 21.382338953 
440 10 1 14.082736725000002 11.031597913 21.279932495 
441 10 5 15.248324631000001 14.034841624 20.857851142 
442 10 1 14.892862784000002 15.794440453000002 19.291832434 
443 10 1 15.871841181 12.207044363 22.004073997000003 
444 10 2 16.108873254000002 14.701977474000001 20.897462529000002 
445 10 5 16.838640497 15.279916637000001 21.382222148 
446 10 5 16.999831258 16.585545933 20.651335473000003 
447 10 5 17.479125771 14.45075785 22.326233171000002 
448 10 5 18.062106283000002 17.292428491000003 20.928156476 
449 10 1 16.485824998000002 16.938038441000003 19.855329765 
450 10 5 18.469528074000003 15.182454761 22.318994357 
451 10 1 17.408826324000003 13.424279401000001 22.613031669 
452 10 5 18.790762819 16.530656413000003 21.781006639 
453 10 1 18.279741379 18.172049122 20.489600021 
454 10 1 18.988392209 14.568159938 22.87422344 
455 10 4 19.892340262 17.018206851000002 21.856162928 
456 10 2 20.319261443000002 16.564902987000004 23.089539195 
457 10 2 21.455246586 17.205401393000002 23.260269625 
458 10 1 20.685962473 15.618730993000002 22.827476876000002 
459 10 1 19.857894234 15.961271644000002 23.918670225 
460 10 3 21.938598267 16.619908494 24.429925285 
461 10 2 21.561197189 18.624526262 23.124807154000003 
462 10 1 20.625268829 17.744708414 23.709488645 
463 10 1 22.410178976 19.033450323 22.789442979 
464 10 1 21.169759546 19.078816433 22.192976723 
465 10 1 16.630447850000003 13.936028802000001 20.425793043000002 
466 10 1 16.756337892 14.536186977000002 20.103706751 
467 10 1 10.208942415 10.611790413 17.726914880000002 
468 10 1 22.440219198 18.641249806 23.734853293 
469 10 6 21.551833452 15.724926473000002 24.389023929 
470 10 6 10.968958936 13.490773028000001 17.330027913000002 
471 11 1 -5.009109119 19.911635634 -0.429198606 
472 11 2 -4.657391808 20.660402679 0.131112815 
473 11 3 -4.336536489 19.352119751 2.022902353 
474 11 2 -3.769040444 20.223694148 1.138638855 
475 11 1 -4.101959242 20.944057102000002 -0.76992647 
476 11 2 -2.991197545 21.126388766 1.783697992 
477 11 1 -4.212687982 21.197609857 1.355016932 
478 11 4 -2.223691962 21.534731512 0.818466235 
479 11 1 -2.500034601 20.440649712000003 2.380630594 
480 11 1 -2.846912681 21.233856308 2.806038873 
481 11 5 -1.324473909 22.183497084000003 1.337269591 
482 11 5 -0.777174231 21.954051389 2.678193267 
483 11 5 -0.671269515 22.442265008 0.21327793 
484 11 5 0.391396013 21.634871875 3.045385304 
485 11 1 -1.137377225 21.517495087 3.470869247 
486 11 5 0.579370156 22.495631341 0.499404783 
487 11 1 -1.002623284 22.389622092 -0.715729167 
488 11 5 1.005437628 22.115523443 1.875191174 
489 11 1 0.703337437 21.71765986 4.0477038 
490 11 1 0.984765389 23.160412132 -0.067182671 
491 11 2 1.933381649 22.7191116 2.176874858 
492 11 5 2.638426724 23.314142277000002 2.866142326 
493 11 5 3.040141267 22.930515054 4.172071463 
494 11 5 3.223305117 24.148751251 1.871952663 
495 11 5 4.217912507 23.392735257000002 4.4943561 
496 11 1 2.451023664 22.513076243 4.834290686 
497 11 5 4.39001667 23.860678027000002 2.014352589 
498 11 1 2.716318347 24.663969992000002 1.124066172 
499 11 5 4.892834492 23.831981371 3.390482268 
500 11 1 4.488642815 23.436294710000002 5.436317535 
501 11 1 4.698162533 24.238132332 1.144475261 
502 11 4 5.593083889 24.748485976 3.825822826 
503 11 2 6.423104336 24.959388605 2.753812533 
504 11 2 7.460165991 25.586319552000003 3.270124749 
505 11 1 5.885970468 25.682773922000003 2.233539785 
506 11 1 6.495684232 24.527194821000002 1.718128067 
507 11 3 8.203166348 25.822231907000003 2.147520468 
508 11 2 8.188439883 25.138008157 4.417795195 
509 11 1 7.632274636 24.512069104000002 3.287906611 
510 11 1 8.596218995 25.838761672 5.021887877 
511 11 1 7.567257936 24.957027992 5.317059691 
512 11 1 1.244565469 23.542006432 2.165483875 
513 11 1 1.424114903 23.451676587 2.848318068 
514 11 1 -5.630034083 20.264682502 0.423919611 
515 11 1 9.055195354 25.708252063 4.128579641 
516 11 6 7.518144559 25.882976687000003 1.446993419 
517 11 6 -3.884015844 19.677093405 2.818035874 
518 12 1 20.965505012 -4.373695007 4.169102553 
519 12 2 20.035966516000002 -4.152041687 3.835212612 
520 12 3 18.615450874 -4.357340259 5.200276028 
521 12 2 19.403166675 -3.503781407 4.791034854 
522 12 1 20.601416642 -3.357232025 3.469029305 
523 12 2 18.86465656 -2.412071262 5.108425686 
524 12 1 18.733089072000002 -3.527851719 4.003880408 
525 12 4 19.517442146 -1.491405907 4.381388279 
526 12 1 19.055533062000002 -2.060197986 6.019405569 
527 12 1 17.954594143 -2.454900523 5.738995629 
528 12 5 18.498722873000002 -1.010898299 3.797083395 
529 12 5 17.273209097000002 -0.708494806 4.525202423 
530 12 5 18.851450833 -0.471735844 2.607994995 
531 12 5 16.266239001000002 -0.030086328 4.155575758 
532 12 1 17.244631643 -0.747952791 5.519606198 
533 12 5 18.122556986 0.649002086 2.445912758 
534 12 1 19.722975857 -0.647548934 2.125715602 
535 12 5 16.978080933 0.822730092 3.327289101 
536 12 1 15.543895392000001 0.115224686 4.901188415 
537 12 1 18.630679382 1.361226814 1.964713187 
538 12 2 17.065968741 1.848320138 4.184108164 
539 12 5 16.29914375 2.637270408 3.855060966 
540 12 5 15.384408983000002 2.935287755 4.96278214 
541 12 5 16.820654014 3.286011019 2.722365963 
542 12 5 14.912152043 4.152729511 5.111552754 
543 12 1 15.177959849 2.415570116 5.782817713 
544 12 5 16.379615033 4.384847178 3.022262153 
545 12 1 17.574303453000002 3.087595552 1.999900175 
546 12 5 15.436383411000001 4.830850841 4.070184913 
547 12 1 14.228438983000002 4.430868222 5.813784939 
548 12 1 16.657235568 4.791267559 2.172339014 
549 12 4 14.510644686000001 5.551533444 3.80403955 
550 12 2 15.128215204000002 6.479039454 2.978868611 
551 12 2 14.031649101000001 7.165174276 2.693457085 
552 12 1 15.085115361000001 5.933166806 2.062966402 
553 12 1 16.152155609 6.625723066 2.529418652 
554 12 3 14.314228249000001 7.717931863 1.432693502 
555 12 2 13.051161852000002 7.751882127 3.628697783 
556 12 1 14.677689786000002 7.510992286 3.436173804 
557 12 1 13.261135750000001 8.702124766 4.039485828 
558 12 1 13.025390988000002 7.446992581 4.691023552 
559 12 1 18.019131805 2.149440394 4.16539476 
560 12 1 17.392736619 1.997344062 5.114756824 
561 12 1 20.125074112 -5.248760891 4.086808613 
562 12 1 12.705942225000001 8.52955924 3.018672804 
563 12 6 15.316176273000002 7.700902967 1.426176904 
564 12 6 18.412476563000002 -3.990877505 6.090999933 
565 13 1 5.340224109 17.61099291 12.277438705 
566 13 2 4.885070946 17.16392403 13.066144771000001 
567 13 3 3.38358118 15.315393686000002 12.674942161 
568 13 2 4.574851184 15.768433786000001 13.190936831000002 
569 13 1 5.771109916 17.450957481000003 13.649576883000002 
570 13 2 4.86435934 14.805973981000001 14.053570813 
571 13 1 4.176446806 16.149774842 14.064340360000001 
572 13 4 6.016471485 15.156447211000001 14.688219606 
573 13 1 5.319629475 14.033323422 13.535614396000001 
574 13 1 4.193030666 13.928770139000001 14.049692373000001 
575 13 5 5.863466072 14.517589083 15.739316702000002 
576 13 5 5.397549563 13.124921734 15.744602734 
577 13 5 6.349360846 15.260672636 16.765841449 
578 13 5 5.104614 12.376185623 16.700159932000002 
579 13 1 5.120076887 12.548348179000001 14.990077828 
580 13 5 6.430499406 14.44222719 17.811661601 